VARIABLES="X" "Y" "Z" "NX" "NY" "NZ" "A"
 ZONE N=        3650 , E=        3624  , F=FEPOINT,ET=QUADRILATERAL
  -0.1733734E+02  -0.4252916E+02   0.0000000E+00   0.0000000E+00   0.0000000E+00   0.0000000E+00   0.0000000E+00
   0.0000000E+00   0.0000000E+00   0.0000000E+00   0.0000000E+00   0.0000000E+00   0.0000000E+00   0.0000000E+00
   0.2046234E+02   0.4794181E+02  -0.2000000E+02   0.0000000E+00   0.0000000E+00   0.0000000E+00   0.0000000E+00
   0.2046234E+02   0.4794181E+02  -0.0000000E+00   0.0000000E+00   0.0000000E+00   0.0000000E+00   0.0000000E+00
   0.2046234E+02   0.4794181E+02  -0.1300000E+02   0.0000000E+00   0.0000000E+00   0.0000000E+00   0.0000000E+00
   0.3128766E+02   0.4169181E+02  -0.1300000E+02   0.0000000E+00   0.0000000E+00   0.0000000E+00   0.0000000E+00
  -0.3608439E+01   0.6250000E+01  -0.1300000E+02   0.0000000E+00   0.0000000E+00   0.0000000E+00   0.0000000E+00
  -0.3608439E+01   0.6250000E+01  -0.2000000E+02   0.0000000E+00   0.0000000E+00   0.0000000E+00   0.0000000E+00
   0.7216878E+01   0.0000000E+00  -0.2000000E+02   0.0000000E+00   0.0000000E+00   0.0000000E+00   0.0000000E+00
   0.7216878E+01   0.0000000E+00  -0.1300000E+02   0.0000000E+00   0.0000000E+00   0.0000000E+00   0.0000000E+00
   0.4890738E+01   0.1039559E+01  -0.1300000E+02   0.0000000E+00   0.0000000E+00   0.0000000E+00   0.0000000E+00
  -0.4045085E+01  -0.2938926E+01  -0.0000000E+00   0.0000000E+00   0.0000000E+00   0.0000000E+00   0.0000000E+00
  -0.3608439E+01  -0.6250000E+01  -0.2000000E+02   0.0000000E+00   0.0000000E+00   0.0000000E+00   0.0000000E+00
  -0.3608439E+01  -0.6250000E+01  -0.1300000E+02   0.0000000E+00   0.0000000E+00   0.0000000E+00   0.0000000E+00
  -0.5175000E+02   0.6250000E+01  -0.0000000E+00   0.0000000E+00   0.0000000E+00   0.0000000E+00   0.0000000E+00
  -0.5175000E+02   0.6250000E+01  -0.1300000E+02   0.0000000E+00   0.0000000E+00   0.0000000E+00   0.0000000E+00
  -0.5175000E+02   0.6250000E+01  -0.2000000E+02   0.0000000E+00   0.0000000E+00   0.0000000E+00   0.0000000E+00
  -0.5175000E+02  -0.6250000E+01  -0.1300000E+02   0.0000000E+00   0.0000000E+00   0.0000000E+00   0.0000000E+00
   0.2046234E+02  -0.4794181E+02  -0.1300000E+02   0.0000000E+00   0.0000000E+00   0.0000000E+00   0.0000000E+00
   0.3128766E+02  -0.4169181E+02  -0.1300000E+02   0.0000000E+00   0.0000000E+00   0.0000000E+00   0.0000000E+00
   0.3128766E+02  -0.4169181E+02  -0.0000000E+00   0.0000000E+00   0.0000000E+00   0.0000000E+00   0.0000000E+00
   0.3128766E+02  -0.4169181E+02  -0.2000000E+02   0.0000000E+00   0.0000000E+00   0.0000000E+00   0.0000000E+00
   0.7969090E+01  -0.1302869E+01  -0.2000000E+02   0.0000000E+00   0.0000000E+00   0.0000000E+00   0.0000000E+00
   0.8721302E+01  -0.2605738E+01  -0.2000000E+02   0.0000000E+00   0.0000000E+00   0.0000000E+00   0.0000000E+00
   0.9473514E+01  -0.3908607E+01  -0.2000000E+02   0.0000000E+00   0.0000000E+00   0.0000000E+00   0.0000000E+00
   0.1022573E+02  -0.5211477E+01  -0.2000000E+02   0.0000000E+00   0.0000000E+00   0.0000000E+00   0.0000000E+00
   0.1097794E+02  -0.6514346E+01  -0.2000000E+02   0.0000000E+00   0.0000000E+00   0.0000000E+00   0.0000000E+00
   0.1173015E+02  -0.7817215E+01  -0.2000000E+02   0.0000000E+00   0.0000000E+00   0.0000000E+00   0.0000000E+00
   0.1248236E+02  -0.9120085E+01  -0.2000000E+02   0.0000000E+00   0.0000000E+00   0.0000000E+00   0.0000000E+00
   0.1323457E+02  -0.1042295E+02  -0.2000000E+02   0.0000000E+00   0.0000000E+00   0.0000000E+00   0.0000000E+00
   0.1398678E+02  -0.1172582E+02  -0.2000000E+02   0.0000000E+00   0.0000000E+00   0.0000000E+00   0.0000000E+00
   0.1473900E+02  -0.1302869E+02  -0.2000000E+02   0.0000000E+00   0.0000000E+00   0.0000000E+00   0.0000000E+00
   0.1549121E+02  -0.1433156E+02  -0.2000000E+02   0.0000000E+00   0.0000000E+00   0.0000000E+00   0.0000000E+00
   0.1624342E+02  -0.1563443E+02  -0.2000000E+02   0.0000000E+00   0.0000000E+00   0.0000000E+00   0.0000000E+00
   0.1699563E+02  -0.1693730E+02  -0.2000000E+02   0.0000000E+00   0.0000000E+00   0.0000000E+00   0.0000000E+00
   0.1774784E+02  -0.1824017E+02  -0.2000000E+02   0.0000000E+00   0.0000000E+00   0.0000000E+00   0.0000000E+00
   0.1850006E+02  -0.1954304E+02  -0.2000000E+02   0.0000000E+00   0.0000000E+00   0.0000000E+00   0.0000000E+00
   0.1925227E+02  -0.2084591E+02  -0.2000000E+02   0.0000000E+00   0.0000000E+00   0.0000000E+00   0.0000000E+00
   0.2000448E+02  -0.2214878E+02  -0.2000000E+02   0.0000000E+00   0.0000000E+00   0.0000000E+00   0.0000000E+00
   0.2075669E+02  -0.2345164E+02  -0.2000000E+02   0.0000000E+00   0.0000000E+00   0.0000000E+00   0.0000000E+00
   0.2150890E+02  -0.2475451E+02  -0.2000000E+02   0.0000000E+00   0.0000000E+00   0.0000000E+00   0.0000000E+00
   0.2226112E+02  -0.2605738E+02  -0.2000000E+02   0.0000000E+00   0.0000000E+00   0.0000000E+00   0.0000000E+00
   0.2301333E+02  -0.2736025E+02  -0.2000000E+02   0.0000000E+00   0.0000000E+00   0.0000000E+00   0.0000000E+00
   0.2376554E+02  -0.2866312E+02  -0.2000000E+02   0.0000000E+00   0.0000000E+00   0.0000000E+00   0.0000000E+00
   0.2451775E+02  -0.2996599E+02  -0.2000000E+02   0.0000000E+00   0.0000000E+00   0.0000000E+00   0.0000000E+00
   0.2526996E+02  -0.3126886E+02  -0.2000000E+02   0.0000000E+00   0.0000000E+00   0.0000000E+00   0.0000000E+00
   0.2602217E+02  -0.3257173E+02  -0.2000000E+02   0.0000000E+00   0.0000000E+00   0.0000000E+00   0.0000000E+00
   0.2677439E+02  -0.3387460E+02  -0.2000000E+02   0.0000000E+00   0.0000000E+00   0.0000000E+00   0.0000000E+00
   0.2752660E+02  -0.3517747E+02  -0.2000000E+02   0.0000000E+00   0.0000000E+00   0.0000000E+00   0.0000000E+00
   0.2827881E+02  -0.3648034E+02  -0.2000000E+02   0.0000000E+00   0.0000000E+00   0.0000000E+00   0.0000000E+00
   0.2903102E+02  -0.3778321E+02  -0.2000000E+02   0.0000000E+00   0.0000000E+00   0.0000000E+00   0.0000000E+00
   0.2978324E+02  -0.3908607E+02  -0.2000000E+02   0.0000000E+00   0.0000000E+00   0.0000000E+00   0.0000000E+00
   0.3053545E+02  -0.4038895E+02  -0.2000000E+02   0.0000000E+00   0.0000000E+00   0.0000000E+00   0.0000000E+00
   0.3187697E+02  -0.4307403E+02  -0.2000000E+02   0.0000000E+00   0.0000000E+00   0.0000000E+00   0.0000000E+00
   0.3211954E+02  -0.4455635E+02  -0.2000000E+02   0.0000000E+00   0.0000000E+00   0.0000000E+00   0.0000000E+00
   0.3200104E+02  -0.4605480E+02  -0.2000000E+02   0.0000000E+00   0.0000000E+00   0.0000000E+00   0.0000000E+00
   0.3152898E+02  -0.4748031E+02  -0.2000000E+02   0.0000000E+00   0.0000000E+00   0.0000000E+00   0.0000000E+00
   0.3072930E+02  -0.4875342E+02  -0.2000000E+02   0.0000000E+00   0.0000000E+00   0.0000000E+00   0.0000000E+00
   0.2965037E+02  -0.4979758E+02  -0.2000000E+02   0.0000000E+00   0.0000000E+00   0.0000000E+00   0.0000000E+00
   0.2835155E+02  -0.5055511E+02  -0.2000000E+02   0.0000000E+00   0.0000000E+00   0.0000000E+00   0.0000000E+00
   0.2691161E+02  -0.5098015E+02  -0.2000000E+02   0.0000000E+00   0.0000000E+00   0.0000000E+00   0.0000000E+00
   0.2540965E+02  -0.5104939E+02  -0.2000000E+02   0.0000000E+00   0.0000000E+00   0.0000000E+00   0.0000000E+00
   0.2393667E+02  -0.5075853E+02  -0.2000000E+02   0.0000000E+00   0.0000000E+00   0.0000000E+00   0.0000000E+00
   0.2257382E+02  -0.5012379E+02  -0.2000000E+02   0.0000000E+00   0.0000000E+00   0.0000000E+00   0.0000000E+00
   0.2140327E+02  -0.4918311E+02  -0.2000000E+02   0.0000000E+00   0.0000000E+00   0.0000000E+00   0.0000000E+00
   0.2049161E+02  -0.4798819E+02  -0.2000000E+02   0.0000000E+00   0.0000000E+00   0.0000000E+00   0.0000000E+00
   0.1973677E+02  -0.4668509E+02  -0.2000000E+02   0.0000000E+00   0.0000000E+00   0.0000000E+00   0.0000000E+00
   0.1898370E+02  -0.4538074E+02  -0.2000000E+02   0.0000000E+00   0.0000000E+00   0.0000000E+00   0.0000000E+00
   0.1823064E+02  -0.4407640E+02  -0.2000000E+02   0.0000000E+00   0.0000000E+00   0.0000000E+00   0.0000000E+00
   0.1747757E+02  -0.4277204E+02  -0.2000000E+02   0.0000000E+00   0.0000000E+00   0.0000000E+00   0.0000000E+00
   0.1672450E+02  -0.4146768E+02  -0.2000000E+02   0.0000000E+00   0.0000000E+00   0.0000000E+00   0.0000000E+00
   0.1597143E+02  -0.4016332E+02  -0.2000000E+02   0.0000000E+00   0.0000000E+00   0.0000000E+00   0.0000000E+00
   0.1521836E+02  -0.3885896E+02  -0.2000000E+02   0.0000000E+00   0.0000000E+00   0.0000000E+00   0.0000000E+00
   0.1446528E+02  -0.3755461E+02  -0.2000000E+02   0.0000000E+00   0.0000000E+00   0.0000000E+00   0.0000000E+00
   0.1371221E+02  -0.3625025E+02  -0.2000000E+02   0.0000000E+00   0.0000000E+00   0.0000000E+00   0.0000000E+00
   0.1295914E+02  -0.3494589E+02  -0.2000000E+02   0.0000000E+00   0.0000000E+00   0.0000000E+00   0.0000000E+00
   0.1220607E+02  -0.3364153E+02  -0.2000000E+02   0.0000000E+00   0.0000000E+00   0.0000000E+00   0.0000000E+00
   0.1145300E+02  -0.3233717E+02  -0.2000000E+02   0.0000000E+00   0.0000000E+00   0.0000000E+00   0.0000000E+00
   0.1069992E+02  -0.3103281E+02  -0.2000000E+02   0.0000000E+00   0.0000000E+00   0.0000000E+00   0.0000000E+00
   0.9946853E+01  -0.2972845E+02  -0.2000000E+02   0.0000000E+00   0.0000000E+00   0.0000000E+00   0.0000000E+00
   0.9193781E+01  -0.2842410E+02  -0.2000000E+02   0.0000000E+00   0.0000000E+00   0.0000000E+00   0.0000000E+00
   0.8440710E+01  -0.2711974E+02  -0.2000000E+02   0.0000000E+00   0.0000000E+00   0.0000000E+00   0.0000000E+00
   0.7687638E+01  -0.2581538E+02  -0.2000000E+02   0.0000000E+00   0.0000000E+00   0.0000000E+00   0.0000000E+00
   0.6934566E+01  -0.2451102E+02  -0.2000000E+02   0.0000000E+00   0.0000000E+00   0.0000000E+00   0.0000000E+00
   0.6181494E+01  -0.2320666E+02  -0.2000000E+02   0.0000000E+00   0.0000000E+00   0.0000000E+00   0.0000000E+00
   0.5428422E+01  -0.2190230E+02  -0.2000000E+02   0.0000000E+00   0.0000000E+00   0.0000000E+00   0.0000000E+00
   0.4675351E+01  -0.2059794E+02  -0.2000000E+02   0.0000000E+00   0.0000000E+00   0.0000000E+00   0.0000000E+00
   0.3922279E+01  -0.1929359E+02  -0.2000000E+02   0.0000000E+00   0.0000000E+00   0.0000000E+00   0.0000000E+00
   0.3169207E+01  -0.1798923E+02  -0.2000000E+02   0.0000000E+00   0.0000000E+00   0.0000000E+00   0.0000000E+00
   0.2416135E+01  -0.1668487E+02  -0.2000000E+02   0.0000000E+00   0.0000000E+00   0.0000000E+00   0.0000000E+00
   0.1663064E+01  -0.1538051E+02  -0.2000000E+02   0.0000000E+00   0.0000000E+00   0.0000000E+00   0.0000000E+00
   0.9099917E+00  -0.1407615E+02  -0.2000000E+02   0.0000000E+00   0.0000000E+00   0.0000000E+00   0.0000000E+00
   0.1569199E+00  -0.1277179E+02  -0.2000000E+02   0.0000000E+00   0.0000000E+00   0.0000000E+00   0.0000000E+00
  -0.5961521E+00  -0.1146743E+02  -0.2000000E+02   0.0000000E+00   0.0000000E+00   0.0000000E+00   0.0000000E+00
  -0.1349224E+01  -0.1016308E+02  -0.2000000E+02   0.0000000E+00   0.0000000E+00   0.0000000E+00   0.0000000E+00
  -0.2102296E+01  -0.8858717E+01  -0.2000000E+02   0.0000000E+00   0.0000000E+00   0.0000000E+00   0.0000000E+00
  -0.2855367E+01  -0.7554358E+01  -0.2000000E+02   0.0000000E+00   0.0000000E+00   0.0000000E+00   0.0000000E+00
  -0.5114526E+01  -0.6250000E+01  -0.2000000E+02   0.0000000E+00   0.0000000E+00   0.0000000E+00   0.0000000E+00
  -0.6620616E+01  -0.6250000E+01  -0.2000000E+02   0.0000000E+00   0.0000000E+00   0.0000000E+00   0.0000000E+00
  -0.8126711E+01  -0.6250000E+01  -0.2000000E+02   0.0000000E+00   0.0000000E+00   0.0000000E+00   0.0000000E+00
  -0.9632810E+01  -0.6250000E+01  -0.2000000E+02   0.0000000E+00   0.0000000E+00   0.0000000E+00   0.0000000E+00
  -0.1113891E+02  -0.6250000E+01  -0.2000000E+02   0.0000000E+00   0.0000000E+00   0.0000000E+00   0.0000000E+00
  -0.1264502E+02  -0.6250000E+01  -0.2000000E+02   0.0000000E+00   0.0000000E+00   0.0000000E+00   0.0000000E+00
  -0.1415113E+02  -0.6250000E+01  -0.2000000E+02   0.0000000E+00   0.0000000E+00   0.0000000E+00   0.0000000E+00
  -0.1565725E+02  -0.6250000E+01  -0.2000000E+02   0.0000000E+00   0.0000000E+00   0.0000000E+00   0.0000000E+00
  -0.1716336E+02  -0.6250000E+01  -0.2000000E+02   0.0000000E+00   0.0000000E+00   0.0000000E+00   0.0000000E+00
  -0.1866949E+02  -0.6250000E+01  -0.2000000E+02   0.0000000E+00   0.0000000E+00   0.0000000E+00   0.0000000E+00
  -0.2017562E+02  -0.6250000E+01  -0.2000000E+02   0.0000000E+00   0.0000000E+00   0.0000000E+00   0.0000000E+00
  -0.2168175E+02  -0.6250000E+01  -0.2000000E+02   0.0000000E+00   0.0000000E+00   0.0000000E+00   0.0000000E+00
  -0.2318788E+02  -0.6250000E+01  -0.2000000E+02   0.0000000E+00   0.0000000E+00   0.0000000E+00   0.0000000E+00
  -0.2469402E+02  -0.6250000E+01  -0.2000000E+02   0.0000000E+00   0.0000000E+00   0.0000000E+00   0.0000000E+00
  -0.2620017E+02  -0.6250000E+01  -0.2000000E+02   0.0000000E+00   0.0000000E+00   0.0000000E+00   0.0000000E+00
  -0.2770631E+02  -0.6250000E+01  -0.2000000E+02   0.0000000E+00   0.0000000E+00   0.0000000E+00   0.0000000E+00
  -0.2921247E+02  -0.6250000E+01  -0.2000000E+02   0.0000000E+00   0.0000000E+00   0.0000000E+00   0.0000000E+00
  -0.3071862E+02  -0.6250000E+01  -0.2000000E+02   0.0000000E+00   0.0000000E+00   0.0000000E+00   0.0000000E+00
  -0.3222478E+02  -0.6250000E+01  -0.2000000E+02   0.0000000E+00   0.0000000E+00   0.0000000E+00   0.0000000E+00
  -0.3373095E+02  -0.6250000E+01  -0.2000000E+02   0.0000000E+00   0.0000000E+00   0.0000000E+00   0.0000000E+00
  -0.3523711E+02  -0.6250000E+01  -0.2000000E+02   0.0000000E+00   0.0000000E+00   0.0000000E+00   0.0000000E+00
  -0.3674329E+02  -0.6250000E+01  -0.2000000E+02   0.0000000E+00   0.0000000E+00   0.0000000E+00   0.0000000E+00
  -0.3824947E+02  -0.6250000E+01  -0.2000000E+02   0.0000000E+00   0.0000000E+00   0.0000000E+00   0.0000000E+00
  -0.3975565E+02  -0.6250000E+01  -0.2000000E+02   0.0000000E+00   0.0000000E+00   0.0000000E+00   0.0000000E+00
  -0.4126183E+02  -0.6250000E+01  -0.2000000E+02   0.0000000E+00   0.0000000E+00   0.0000000E+00   0.0000000E+00
  -0.4276802E+02  -0.6250000E+01  -0.2000000E+02   0.0000000E+00   0.0000000E+00   0.0000000E+00   0.0000000E+00
  -0.4427421E+02  -0.6250000E+01  -0.2000000E+02   0.0000000E+00   0.0000000E+00   0.0000000E+00   0.0000000E+00
  -0.4578041E+02  -0.6250000E+01  -0.2000000E+02   0.0000000E+00   0.0000000E+00   0.0000000E+00   0.0000000E+00
  -0.4728661E+02  -0.6250000E+01  -0.2000000E+02   0.0000000E+00   0.0000000E+00   0.0000000E+00   0.0000000E+00
  -0.4879282E+02  -0.6250000E+01  -0.2000000E+02   0.0000000E+00   0.0000000E+00   0.0000000E+00   0.0000000E+00
  -0.5029905E+02  -0.6250000E+01  -0.2000000E+02   0.0000000E+00   0.0000000E+00   0.0000000E+00   0.0000000E+00
  -0.5180491E+02  -0.6247831E+01  -0.2000000E+02   0.0000000E+00   0.0000000E+00   0.0000000E+00   0.0000000E+00
  -0.5329551E+02  -0.6055768E+01  -0.2000000E+02   0.0000000E+00   0.0000000E+00   0.0000000E+00   0.0000000E+00
  -0.5469538E+02  -0.5512397E+01  -0.2000000E+02   0.0000000E+00   0.0000000E+00   0.0000000E+00   0.0000000E+00
  -0.5592647E+02  -0.4649535E+01  -0.2000000E+02   0.0000000E+00   0.0000000E+00   0.0000000E+00   0.0000000E+00
  -0.5691485E+02  -0.3519357E+01  -0.2000000E+02   0.0000000E+00   0.0000000E+00   0.0000000E+00   0.0000000E+00
  -0.5760588E+02  -0.2184022E+01  -0.2000000E+02   0.0000000E+00   0.0000000E+00   0.0000000E+00   0.0000000E+00
  -0.5795777E+02  -0.7244829E+00  -0.2000000E+02   0.0000000E+00   0.0000000E+00   0.0000000E+00   0.0000000E+00
  -0.5795117E+02   0.7791039E+00  -0.2000000E+02   0.0000000E+00   0.0000000E+00   0.0000000E+00   0.0000000E+00
  -0.5758637E+02   0.2235581E+01  -0.2000000E+02   0.0000000E+00   0.0000000E+00   0.0000000E+00   0.0000000E+00
  -0.5688366E+02   0.3564733E+01  -0.2000000E+02   0.0000000E+00   0.0000000E+00   0.0000000E+00   0.0000000E+00
  -0.5588509E+02   0.4686359E+01  -0.2000000E+02   0.0000000E+00   0.0000000E+00   0.0000000E+00   0.0000000E+00
  -0.5464658E+02   0.5538226E+01  -0.2000000E+02   0.0000000E+00   0.0000000E+00   0.0000000E+00   0.0000000E+00
  -0.5324163E+02   0.6069261E+01  -0.2000000E+02   0.0000000E+00   0.0000000E+00   0.0000000E+00   0.0000000E+00
  -0.5024557E+02   0.6250000E+01  -0.2000000E+02   0.0000000E+00   0.0000000E+00   0.0000000E+00   0.0000000E+00
  -0.4874115E+02   0.6250000E+01  -0.2000000E+02   0.0000000E+00   0.0000000E+00   0.0000000E+00   0.0000000E+00
  -0.4723673E+02   0.6250000E+01  -0.2000000E+02   0.0000000E+00   0.0000000E+00   0.0000000E+00   0.0000000E+00
  -0.4573230E+02   0.6250000E+01  -0.2000000E+02   0.0000000E+00   0.0000000E+00   0.0000000E+00   0.0000000E+00
  -0.4422788E+02   0.6250000E+01  -0.2000000E+02   0.0000000E+00   0.0000000E+00   0.0000000E+00   0.0000000E+00
  -0.4272346E+02   0.6250000E+01  -0.2000000E+02   0.0000000E+00   0.0000000E+00   0.0000000E+00   0.0000000E+00
  -0.4121903E+02   0.6250000E+01  -0.2000000E+02   0.0000000E+00   0.0000000E+00   0.0000000E+00   0.0000000E+00
  -0.3971461E+02   0.6250000E+01  -0.2000000E+02   0.0000000E+00   0.0000000E+00   0.0000000E+00   0.0000000E+00
  -0.3821019E+02   0.6250000E+01  -0.2000000E+02   0.0000000E+00   0.0000000E+00   0.0000000E+00   0.0000000E+00
  -0.3670576E+02   0.6250000E+01  -0.2000000E+02   0.0000000E+00   0.0000000E+00   0.0000000E+00   0.0000000E+00
  -0.3520134E+02   0.6250000E+01  -0.2000000E+02   0.0000000E+00   0.0000000E+00   0.0000000E+00   0.0000000E+00
  -0.3369691E+02   0.6250000E+01  -0.2000000E+02   0.0000000E+00   0.0000000E+00   0.0000000E+00   0.0000000E+00
  -0.3219249E+02   0.6250000E+01  -0.2000000E+02   0.0000000E+00   0.0000000E+00   0.0000000E+00   0.0000000E+00
  -0.3068807E+02   0.6250000E+01  -0.2000000E+02   0.0000000E+00   0.0000000E+00   0.0000000E+00   0.0000000E+00
  -0.2918364E+02   0.6250000E+01  -0.2000000E+02   0.0000000E+00   0.0000000E+00   0.0000000E+00   0.0000000E+00
  -0.2767922E+02   0.6250000E+01  -0.2000000E+02   0.0000000E+00   0.0000000E+00   0.0000000E+00   0.0000000E+00
  -0.2617480E+02   0.6250000E+01  -0.2000000E+02   0.0000000E+00   0.0000000E+00   0.0000000E+00   0.0000000E+00
  -0.2467037E+02   0.6250000E+01  -0.2000000E+02   0.0000000E+00   0.0000000E+00   0.0000000E+00   0.0000000E+00
  -0.2316595E+02   0.6250000E+01  -0.2000000E+02   0.0000000E+00   0.0000000E+00   0.0000000E+00   0.0000000E+00
  -0.2166152E+02   0.6250000E+01  -0.2000000E+02   0.0000000E+00   0.0000000E+00   0.0000000E+00   0.0000000E+00
  -0.2015710E+02   0.6250000E+01  -0.2000000E+02   0.0000000E+00   0.0000000E+00   0.0000000E+00   0.0000000E+00
  -0.1865268E+02   0.6250000E+01  -0.2000000E+02   0.0000000E+00   0.0000000E+00   0.0000000E+00   0.0000000E+00
  -0.1714825E+02   0.6250000E+01  -0.2000000E+02   0.0000000E+00   0.0000000E+00   0.0000000E+00   0.0000000E+00
  -0.1564383E+02   0.6250000E+01  -0.2000000E+02   0.0000000E+00   0.0000000E+00   0.0000000E+00   0.0000000E+00
  -0.1413941E+02   0.6250000E+01  -0.2000000E+02   0.0000000E+00   0.0000000E+00   0.0000000E+00   0.0000000E+00
  -0.1263498E+02   0.6250000E+01  -0.2000000E+02   0.0000000E+00   0.0000000E+00   0.0000000E+00   0.0000000E+00
  -0.1113056E+02   0.6250000E+01  -0.2000000E+02   0.0000000E+00   0.0000000E+00   0.0000000E+00   0.0000000E+00
  -0.9626134E+01   0.6250000E+01  -0.2000000E+02   0.0000000E+00   0.0000000E+00   0.0000000E+00   0.0000000E+00
  -0.8121711E+01   0.6250000E+01  -0.2000000E+02   0.0000000E+00   0.0000000E+00   0.0000000E+00   0.0000000E+00
  -0.6617287E+01   0.6250000E+01  -0.2000000E+02   0.0000000E+00   0.0000000E+00   0.0000000E+00   0.0000000E+00
  -0.5112863E+01   0.6250000E+01  -0.2000000E+02   0.0000000E+00   0.0000000E+00   0.0000000E+00   0.0000000E+00
  -0.2856227E+01   0.7552869E+01  -0.2000000E+02   0.0000000E+00   0.0000000E+00   0.0000000E+00   0.0000000E+00
  -0.2104015E+01   0.8855739E+01  -0.2000000E+02   0.0000000E+00   0.0000000E+00   0.0000000E+00   0.0000000E+00
  -0.1351804E+01   0.1015861E+02  -0.2000000E+02   0.0000000E+00   0.0000000E+00   0.0000000E+00   0.0000000E+00
  -0.5995916E+00   0.1146148E+02  -0.2000000E+02   0.0000000E+00   0.0000000E+00   0.0000000E+00   0.0000000E+00
   0.1526203E+00   0.1276435E+02  -0.2000000E+02   0.0000000E+00   0.0000000E+00   0.0000000E+00   0.0000000E+00
   0.9048321E+00   0.1406721E+02  -0.2000000E+02   0.0000000E+00   0.0000000E+00   0.0000000E+00   0.0000000E+00
   0.1657044E+01   0.1537008E+02  -0.2000000E+02   0.0000000E+00   0.0000000E+00   0.0000000E+00   0.0000000E+00
   0.2409256E+01   0.1667295E+02  -0.2000000E+02   0.0000000E+00   0.0000000E+00   0.0000000E+00   0.0000000E+00
   0.3161468E+01   0.1797582E+02  -0.2000000E+02   0.0000000E+00   0.0000000E+00   0.0000000E+00   0.0000000E+00
   0.3913680E+01   0.1927869E+02  -0.2000000E+02   0.0000000E+00   0.0000000E+00   0.0000000E+00   0.0000000E+00
   0.4665892E+01   0.2058156E+02  -0.2000000E+02   0.0000000E+00   0.0000000E+00   0.0000000E+00   0.0000000E+00
   0.5418104E+01   0.2188443E+02  -0.2000000E+02   0.0000000E+00   0.0000000E+00   0.0000000E+00   0.0000000E+00
   0.6170315E+01   0.2318730E+02  -0.2000000E+02   0.0000000E+00   0.0000000E+00   0.0000000E+00   0.0000000E+00
   0.6922527E+01   0.2449017E+02  -0.2000000E+02   0.0000000E+00   0.0000000E+00   0.0000000E+00   0.0000000E+00
   0.7674739E+01   0.2579304E+02  -0.2000000E+02   0.0000000E+00   0.0000000E+00   0.0000000E+00   0.0000000E+00
   0.8426951E+01   0.2709591E+02  -0.2000000E+02   0.0000000E+00   0.0000000E+00   0.0000000E+00   0.0000000E+00
   0.9179163E+01   0.2839878E+02  -0.2000000E+02   0.0000000E+00   0.0000000E+00   0.0000000E+00   0.0000000E+00
   0.9931375E+01   0.2970164E+02  -0.2000000E+02   0.0000000E+00   0.0000000E+00   0.0000000E+00   0.0000000E+00
   0.1068359E+02   0.3100451E+02  -0.2000000E+02   0.0000000E+00   0.0000000E+00   0.0000000E+00   0.0000000E+00
   0.1143580E+02   0.3230738E+02  -0.2000000E+02   0.0000000E+00   0.0000000E+00   0.0000000E+00   0.0000000E+00
   0.1218801E+02   0.3361025E+02  -0.2000000E+02   0.0000000E+00   0.0000000E+00   0.0000000E+00   0.0000000E+00
   0.1294022E+02   0.3491312E+02  -0.2000000E+02   0.0000000E+00   0.0000000E+00   0.0000000E+00   0.0000000E+00
   0.1369243E+02   0.3621599E+02  -0.2000000E+02   0.0000000E+00   0.0000000E+00   0.0000000E+00   0.0000000E+00
   0.1444465E+02   0.3751886E+02  -0.2000000E+02   0.0000000E+00   0.0000000E+00   0.0000000E+00   0.0000000E+00
   0.1519686E+02   0.3882173E+02  -0.2000000E+02   0.0000000E+00   0.0000000E+00   0.0000000E+00   0.0000000E+00
   0.1594907E+02   0.4012460E+02  -0.2000000E+02   0.0000000E+00   0.0000000E+00   0.0000000E+00   0.0000000E+00
   0.1670128E+02   0.4142747E+02  -0.2000000E+02   0.0000000E+00   0.0000000E+00   0.0000000E+00   0.0000000E+00
   0.1745349E+02   0.4273034E+02  -0.2000000E+02   0.0000000E+00   0.0000000E+00   0.0000000E+00   0.0000000E+00
   0.1820571E+02   0.4403321E+02  -0.2000000E+02   0.0000000E+00   0.0000000E+00   0.0000000E+00   0.0000000E+00
   0.1895792E+02   0.4533607E+02  -0.2000000E+02   0.0000000E+00   0.0000000E+00   0.0000000E+00   0.0000000E+00
   0.1971013E+02   0.4663895E+02  -0.2000000E+02   0.0000000E+00   0.0000000E+00   0.0000000E+00   0.0000000E+00
   0.2136472E+02   0.4914328E+02  -0.2000000E+02   0.0000000E+00   0.0000000E+00   0.0000000E+00   0.0000000E+00
   0.2252716E+02   0.5009451E+02  -0.2000000E+02   0.0000000E+00   0.0000000E+00   0.0000000E+00   0.0000000E+00
   0.2388411E+02   0.5074111E+02  -0.2000000E+02   0.0000000E+00   0.0000000E+00   0.0000000E+00   0.0000000E+00
   0.2535467E+02   0.5104506E+02  -0.2000000E+02   0.0000000E+00   0.0000000E+00   0.0000000E+00   0.0000000E+00
   0.2685705E+02   0.5098906E+02  -0.2000000E+02   0.0000000E+00   0.0000000E+00   0.0000000E+00   0.0000000E+00
   0.2830078E+02   0.5057677E+02  -0.2000000E+02   0.0000000E+00   0.0000000E+00   0.0000000E+00   0.0000000E+00
   0.2960623E+02   0.4983072E+02  -0.2000000E+02   0.0000000E+00   0.0000000E+00   0.0000000E+00   0.0000000E+00
   0.3069430E+02   0.4879621E+02  -0.2000000E+02   0.0000000E+00   0.0000000E+00   0.0000000E+00   0.0000000E+00
   0.3150524E+02   0.4753009E+02  -0.2000000E+02   0.0000000E+00   0.0000000E+00   0.0000000E+00   0.0000000E+00
   0.3198984E+02   0.4610902E+02  -0.2000000E+02   0.0000000E+00   0.0000000E+00   0.0000000E+00   0.0000000E+00
   0.3212157E+02   0.4461140E+02  -0.2000000E+02   0.0000000E+00   0.0000000E+00   0.0000000E+00   0.0000000E+00
   0.3189219E+02   0.4312733E+02  -0.2000000E+02   0.0000000E+00   0.0000000E+00   0.0000000E+00   0.0000000E+00
   0.3131318E+02   0.4174035E+02  -0.2000000E+02   0.0000000E+00   0.0000000E+00   0.0000000E+00   0.0000000E+00
   0.3056209E+02   0.4043509E+02  -0.2000000E+02   0.0000000E+00   0.0000000E+00   0.0000000E+00   0.0000000E+00
   0.2980902E+02   0.3913074E+02  -0.2000000E+02   0.0000000E+00   0.0000000E+00   0.0000000E+00   0.0000000E+00
   0.2905596E+02   0.3782640E+02  -0.2000000E+02   0.0000000E+00   0.0000000E+00   0.0000000E+00   0.0000000E+00
   0.2830289E+02   0.3652204E+02  -0.2000000E+02   0.0000000E+00   0.0000000E+00   0.0000000E+00   0.0000000E+00
   0.2754982E+02   0.3521768E+02  -0.2000000E+02   0.0000000E+00   0.0000000E+00   0.0000000E+00   0.0000000E+00
   0.2679675E+02   0.3391332E+02  -0.2000000E+02   0.0000000E+00   0.0000000E+00   0.0000000E+00   0.0000000E+00
   0.2604367E+02   0.3260896E+02  -0.2000000E+02   0.0000000E+00   0.0000000E+00   0.0000000E+00   0.0000000E+00
   0.2529060E+02   0.3130461E+02  -0.2000000E+02   0.0000000E+00   0.0000000E+00   0.0000000E+00   0.0000000E+00
   0.2453753E+02   0.3000025E+02  -0.2000000E+02   0.0000000E+00   0.0000000E+00   0.0000000E+00   0.0000000E+00
   0.2378446E+02   0.2869589E+02  -0.2000000E+02   0.0000000E+00   0.0000000E+00   0.0000000E+00   0.0000000E+00
   0.2303139E+02   0.2739153E+02  -0.2000000E+02   0.0000000E+00   0.0000000E+00   0.0000000E+00   0.0000000E+00
   0.2227831E+02   0.2608717E+02  -0.2000000E+02   0.0000000E+00   0.0000000E+00   0.0000000E+00   0.0000000E+00
   0.2152524E+02   0.2478281E+02  -0.2000000E+02   0.0000000E+00   0.0000000E+00   0.0000000E+00   0.0000000E+00
   0.2077217E+02   0.2347845E+02  -0.2000000E+02   0.0000000E+00   0.0000000E+00   0.0000000E+00   0.0000000E+00
   0.2001910E+02   0.2217410E+02  -0.2000000E+02   0.0000000E+00   0.0000000E+00   0.0000000E+00   0.0000000E+00
   0.1926603E+02   0.2086974E+02  -0.2000000E+02   0.0000000E+00   0.0000000E+00   0.0000000E+00   0.0000000E+00
   0.1851295E+02   0.1956538E+02  -0.2000000E+02   0.0000000E+00   0.0000000E+00   0.0000000E+00   0.0000000E+00
   0.1775988E+02   0.1826102E+02  -0.2000000E+02   0.0000000E+00   0.0000000E+00   0.0000000E+00   0.0000000E+00
   0.1700681E+02   0.1695666E+02  -0.2000000E+02   0.0000000E+00   0.0000000E+00   0.0000000E+00   0.0000000E+00
   0.1625374E+02   0.1565230E+02  -0.2000000E+02   0.0000000E+00   0.0000000E+00   0.0000000E+00   0.0000000E+00
   0.1550067E+02   0.1434795E+02  -0.2000000E+02   0.0000000E+00   0.0000000E+00   0.0000000E+00   0.0000000E+00
   0.1474760E+02   0.1304359E+02  -0.2000000E+02   0.0000000E+00   0.0000000E+00   0.0000000E+00   0.0000000E+00
   0.1399452E+02   0.1173923E+02  -0.2000000E+02   0.0000000E+00   0.0000000E+00   0.0000000E+00   0.0000000E+00
   0.1324145E+02   0.1043487E+02  -0.2000000E+02   0.0000000E+00   0.0000000E+00   0.0000000E+00   0.0000000E+00
   0.1248838E+02   0.9130510E+01  -0.2000000E+02   0.0000000E+00   0.0000000E+00   0.0000000E+00   0.0000000E+00
   0.1173531E+02   0.7826152E+01  -0.2000000E+02   0.0000000E+00   0.0000000E+00   0.0000000E+00   0.0000000E+00
   0.1098224E+02   0.6521793E+01  -0.2000000E+02   0.0000000E+00   0.0000000E+00   0.0000000E+00   0.0000000E+00
   0.1022917E+02   0.5217434E+01  -0.2000000E+02   0.0000000E+00   0.0000000E+00   0.0000000E+00   0.0000000E+00
   0.9476093E+01   0.3913076E+01  -0.2000000E+02   0.0000000E+00   0.0000000E+00   0.0000000E+00   0.0000000E+00
   0.8723022E+01   0.2608717E+01  -0.2000000E+02   0.0000000E+00   0.0000000E+00   0.0000000E+00   0.0000000E+00
   0.7969950E+01   0.1304359E+01  -0.2000000E+02   0.0000000E+00   0.0000000E+00   0.0000000E+00   0.0000000E+00
  -0.5541764E+02  -0.3267479E+01  -0.2000000E+02   0.0000000E+00   0.0000000E+00   0.0000000E+00   0.0000000E+00
  -0.5651649E+02  -0.2473237E+01  -0.2000000E+02   0.0000000E+00   0.0000000E+00   0.0000000E+00   0.0000000E+00
  -0.5424508E+02  -0.3948900E+01  -0.2000000E+02   0.0000000E+00   0.0000000E+00   0.0000000E+00   0.0000000E+00
  -0.5516576E+02  -0.1769266E+01  -0.2000000E+02   0.0000000E+00   0.0000000E+00   0.0000000E+00   0.0000000E+00
  -0.5298348E+02  -0.4463402E+01  -0.2000000E+02   0.0000000E+00   0.0000000E+00   0.0000000E+00   0.0000000E+00
  -0.5652240E+02  -0.1115003E+01  -0.2000000E+02   0.0000000E+00   0.0000000E+00   0.0000000E+00   0.0000000E+00
  -0.5388192E+02  -0.2328366E+01  -0.2000000E+02   0.0000000E+00   0.0000000E+00   0.0000000E+00   0.0000000E+00
  -0.5488355E+02  -0.3255945E+00  -0.2000000E+02   0.0000000E+00   0.0000000E+00   0.0000000E+00   0.0000000E+00
  -0.5161558E+02  -0.4691343E+01  -0.2000000E+02   0.0000000E+00   0.0000000E+00   0.0000000E+00   0.0000000E+00
  -0.5639641E+02   0.2548099E+00  -0.2000000E+02   0.0000000E+00   0.0000000E+00   0.0000000E+00   0.0000000E+00
  -0.5272356E+02  -0.2925381E+01  -0.2000000E+02   0.0000000E+00   0.0000000E+00   0.0000000E+00   0.0000000E+00
  -0.5019113E+02  -0.4701998E+01  -0.2000000E+02   0.0000000E+00   0.0000000E+00   0.0000000E+00   0.0000000E+00
  -0.5330871E+02  -0.7266613E+00  -0.2000000E+02   0.0000000E+00   0.0000000E+00   0.0000000E+00   0.0000000E+00
  -0.5146837E+02  -0.3184316E+01  -0.2000000E+02   0.0000000E+00   0.0000000E+00   0.0000000E+00   0.0000000E+00
  -0.5464882E+02   0.1119889E+01  -0.2000000E+02   0.0000000E+00   0.0000000E+00   0.0000000E+00   0.0000000E+00
  -0.5610677E+02   0.1603553E+01  -0.2000000E+02   0.0000000E+00   0.0000000E+00   0.0000000E+00   0.0000000E+00
  -0.4873876E+02  -0.4690049E+01  -0.2000000E+02   0.0000000E+00   0.0000000E+00   0.0000000E+00   0.0000000E+00