VARIABLES="w (rad/s)"
"abs(F   1   1)" "angle(F   1   1)"
"abs(F   1   2)" "angle(F   1   2)"
"abs(F   1   3)" "angle(F   1   3)"
"abs(F   1   4)" "angle(F   1   4)"
"abs(F   1   5)" "angle(F   1   5)"
"abs(F   1   6)" "angle(F   1   6)"
Zone t="FKforce - beta =   0.000",I=    71,F=POINT
  0.1000000E-01  0.5276722E+05 -0.1570800E+01  0.3957083E+00 -0.3183242E-01  0.4440188E+07  0.8742049E-07  0.1417601E+03 -0.6497561E-01  0.9356142E+06 -0.1575161E+01  0.1265993E+02  0.3117473E+01
  0.5985714E-01  0.3169453E+06 -0.1570792E+01  0.1847509E+01 -0.4421719E-01  0.4369064E+07  0.1880743E-04  0.6830418E+02 -0.2431188E+01  0.5585822E+07 -0.1598735E+01  0.4356530E+02  0.3021208E+01
  0.1097143E+00  0.5859603E+06 -0.1570725E+01  0.1565685E+01  0.3123523E+01  0.4196900E+07  0.1254755E-03  0.1803580E+03 -0.2687077E+01  0.1017369E+08 -0.1623481E+01  0.2291173E+02  0.4690230E+00
  0.1595714E+00  0.8644174E+06 -0.1570553E+01  0.1852849E+01 -0.1760232E+00  0.3925000E+07  0.4443914E-03  0.1362255E+03 -0.1515598E+01  0.1464501E+08 -0.1651060E+01  0.1038393E+03  0.2960464E+01
  0.2094286E+00  0.1157688E+07 -0.1570151E+01  0.1136699E+01 -0.3304614E+00  0.3556196E+07  0.1230192E-02  0.1807705E+03 -0.2103737E+01  0.1893799E+08 -0.1683406E+01  0.9557510E+01 -0.7414661E-01
  0.2592857E+00  0.1471223E+07 -0.1569275E+01  0.2957594E+00 -0.1797255E+01  0.3095778E+07  0.3079027E-02  0.2738004E+03 -0.2213910E+01  0.2296617E+08 -0.1723312E+01  0.3067928E+02  0.3119627E+01
  0.3091429E+00  0.1807196E+07 -0.1567408E+01  0.4749727E+00 -0.2889508E+01  0.2553593E+07  0.7505959E-02  0.4628153E+03 -0.2537860E+01  0.2657787E+08 -0.1774715E+01  0.9473261E+02  0.3062639E+01
  0.3590000E+00  0.2156215E+07 -0.1563463E+01  0.2499834E+01 -0.2778570E+01  0.1947022E+07  0.1870112E-01  0.4892552E+03 -0.2469062E+01  0.2948104E+08 -0.1842839E+01  0.5275899E+01  0.2054395E+01
  0.4088571E+00  0.2487005E+07 -0.1555326E+01  0.2922477E+01 -0.3132779E+01  0.1303322E+07  0.5003677E-01  0.6763689E+03 -0.2557895E+01  0.3120017E+08 -0.1933998E+01  0.6731139E+02 -0.8736298E-01
  0.4587143E+00  0.2747397E+07 -0.1539214E+01  0.2242175E+01  0.3086469E+01  0.6619664E+06  0.1645296E+00  0.8793456E+03 -0.2670601E+01  0.3121014E+08 -0.2056463E+01  0.8604947E+02 -0.1846371E+01
  0.5085714E+00  0.2882483E+07 -0.1508563E+01  0.2881700E+01 -0.3068583E+01  0.1703299E+06  0.1334726E+01  0.1073953E+04 -0.2715714E+01  0.2924906E+08 -0.2224542E+01  0.2434921E+02 -0.2854346E+01
  0.5584285E+00  0.2855792E+07 -0.1451703E+01  0.1949741E+01 -0.3135707E+01  0.5483861E+06  0.2706731E+01  0.1403046E+04 -0.2752820E+01  0.2563110E+08 -0.2466519E+01  0.1271777E+03 -0.1915573E+01
  0.6082857E+00  0.2667978E+07 -0.1347399E+01  0.2575308E+01  0.3051838E+01  0.9662841E+06  0.2833297E+01  0.1644119E+04 -0.2765746E+01  0.2154975E+08 -0.2832315E+01  0.9883334E+02 -0.2699794E+01
  0.6581428E+00  0.2383145E+07 -0.1159554E+01  0.2288715E+01  0.2820685E+01  0.1246959E+07  0.2869197E+01  0.1814510E+04 -0.2778418E+01  0.1928496E+08  0.2927540E+01  0.1910838E+03 -0.1900637E+01
  0.7080000E+00  0.2162462E+07 -0.8511626E+00  0.1972673E+01  0.2258990E+01  0.1366068E+07  0.2891173E+01  0.2011175E+04 -0.2724614E+01  0.2076739E+08  0.2366936E+01  0.1019224E+03 -0.2305536E+01
  0.7578571E+00  0.2219500E+07 -0.4676503E+00  0.1643487E+00  0.2100261E+01  0.1323786E+07  0.2924757E+01  0.2090630E+04 -0.2602291E+01  0.2484169E+08  0.1937370E+01  0.1571786E+03 -0.1681366E+01
  0.8077143E+00  0.2584906E+07 -0.1554424E+00  0.5651389E+00  0.4688639E+00  0.1146012E+07  0.2997696E+01  0.2103184E+04 -0.2439811E+01  0.2882343E+08  0.1638375E+01  0.1910346E+03 -0.2378629E+01
  0.8575714E+00  0.3037276E+07  0.2746353E-01  0.1328473E+01 -0.9478618E-01  0.8902055E+06 -0.3119400E+01  0.2128855E+04 -0.2194260E+01  0.3078762E+08  0.1417240E+01  0.1080542E+03 -0.1877022E+01
  0.9074286E+00  0.3316922E+07  0.1171723E+00  0.1885505E+01 -0.6205806E+00  0.6602649E+06 -0.2756148E+01  0.2367497E+04 -0.1883377E+01  0.2976649E+08  0.1242023E+01  0.1438233E+03 -0.1442357E+01
  0.9572856E+00  0.3236382E+07  0.1563989E+00  0.1863485E+01 -0.8960043E+00  0.5994535E+06 -0.2193066E+01  0.2732159E+04 -0.1607014E+01  0.2557910E+08  0.1102059E+01  0.1551379E+03 -0.2455985E+01
  0.1007143E+01  0.2705828E+07  0.1812229E+00  0.2500341E+01 -0.7836375E+00  0.7079491E+06 -0.1769218E+01  0.3236407E+04 -0.1393539E+01  0.1873702E+08  0.1009943E+01  0.5159233E+02  0.1003605E+01
  0.1057000E+01  0.1757945E+07  0.2545197E+00  0.2153258E+01 -0.1034830E+01  0.8293583E+06 -0.1569133E+01  0.3755740E+04 -0.1232932E+01  0.1044835E+08  0.1055500E+01  0.4472335E+02 -0.2365845E+00
  0.1106857E+01  0.6601362E+06  0.8097971E+00  0.1668514E+01 -0.1337760E+01  0.8709233E+06 -0.1480548E+01  0.4051221E+04 -0.1100951E+01  0.4377736E+07  0.1968365E+01  0.7240249E+02  0.1421832E+00
  0.1156714E+01  0.1046054E+07  0.2475576E+01  0.1187745E+01 -0.1162193E+01  0.8129345E+06 -0.1432112E+01  0.4082993E+04 -0.9561450E+00  0.8872274E+07  0.2970532E+01  0.9309932E+02  0.3301528E+00
  0.1206571E+01  0.2031955E+07  0.2687901E+01  0.6423590E+00 -0.1730333E+00  0.6759941E+06 -0.1379871E+01  0.3828944E+04 -0.7752318E+00  0.1413534E+08  0.3048620E+01  0.7385593E+02 -0.3203456E+00
  0.1256429E+01  0.2529004E+07  0.2719136E+01  0.9751112E+00  0.4450631E+00  0.5028385E+06 -0.1278391E+01  0.3444989E+04 -0.5163330E+00  0.1645894E+08  0.3001292E+01  0.9138857E+02 -0.2145575E+00
  0.1306286E+01  0.2342609E+07  0.2767230E+01  0.1758414E+01  0.7228302E+00  0.3449842E+06 -0.1062275E+01  0.3163921E+04 -0.1638785E+00  0.1532241E+08  0.2954010E+01  0.3033649E+02 -0.1285742E+01
  0.1356143E+01  0.1598387E+07  0.3021510E+01  0.2332091E+01  0.4780504E+00  0.2466047E+06 -0.6890229E+00  0.3161443E+04  0.2232655E+00  0.1129505E+08  0.2998926E+01  0.5634051E+02 -0.2899535E+01
  0.1406000E+01  0.1239463E+07 -0.2313678E+01  0.2566689E+01  0.3152102E+00  0.2091432E+06 -0.3069213E+00  0.3339020E+04  0.5534065E+00  0.6644832E+07 -0.2858267E+01  0.8796287E+02  0.2860697E+01
  0.1455857E+01  0.2166474E+07 -0.1693184E+01  0.2429983E+01  0.5152628E-01  0.1864606E+06 -0.9049637E-01  0.3428470E+04  0.8164287E+00  0.7057631E+07 -0.1926271E+01  0.6477707E+02  0.2436686E+01
  0.1505714E+01  0.3045688E+07 -0.1578311E+01  0.1670101E+01 -0.7464096E-01  0.1495372E+06 -0.1269886E-01  0.3279287E+04  0.1058094E+01  0.1074513E+08 -0.1610073E+01  0.1071794E+03  0.2071217E+01
  0.1555571E+01  0.3187651E+07 -0.1570388E+01  0.7814005E+00 -0.2047677E+00  0.1007042E+06 -0.3449106E-02  0.2922483E+04  0.1331094E+01  0.1223206E+08 -0.1568453E+01  0.1062028E+03  0.1791731E+01
  0.1605429E+01  0.2488804E+07 -0.1526356E+01  0.6198390E+00  0.1405846E+00  0.5339433E+05 -0.1986513E-02  0.2523806E+04  0.1676560E+01  0.1025642E+08 -0.1546162E+01  0.4563475E+02  0.1678914E+01
  0.1655286E+01  0.1386624E+07 -0.1167479E+01  0.6551690E+00  0.5867785E+00  0.1912209E+05  0.1309861E+00  0.2258664E+04  0.2079733E+01  0.5980048E+07 -0.1299589E+01  0.8025467E+02 -0.2618273E+01
  0.1705143E+01  0.1237714E+07 -0.1154617E+00  0.9494371E+00  0.4539337E+00  0.5573885E+04  0.1322337E+01  0.2121788E+04  0.2469448E+01  0.4340235E+07 -0.2483541E+00  0.6141693E+02 -0.2474812E+01
  0.1755000E+01  0.1810142E+07  0.2457815E+00  0.1579123E+01 -0.8131044E-01  0.6195250E+04  0.2020858E+01  0.1971346E+04  0.2808739E+01  0.6790517E+07  0.2460368E+00  0.1125112E+03 -0.2646945E+01
  0.1804857E+01  0.1712104E+07  0.2526734E+00  0.1764196E+01 -0.2961099E+00  0.2354089E+04  0.1622615E+01  0.1718119E+04  0.3132015E+01  0.6907050E+07  0.2718200E+00  0.1242443E+03 -0.2369233E+01
  0.1854714E+01  0.8440949E+06  0.2148586E+00  0.1850331E+01 -0.4620538E+00  0.3841568E+04 -0.6453418E+00  0.1410288E+04 -0.2784815E+01  0.3653905E+07  0.2338363E+00  0.6724087E+02 -0.1894214E+01
  0.1904571E+01  0.3381501E+06  0.2853973E+01  0.1493457E+01 -0.3200281E+00  0.7045937E+04 -0.9416947E+00  0.1157100E+04 -0.2347270E+01  0.1304035E+07  0.2831280E+01  0.1203491E+03 -0.1204196E+01
  0.1954429E+01  0.1140797E+07  0.2943247E+01  0.1424843E+01 -0.5179900E-01  0.7217099E+04 -0.1082916E+01  0.9977689E+03 -0.1895496E+01  0.4927128E+07  0.2956287E+01  0.1573094E+03 -0.8644626E+00
  0.2004286E+01  0.1199541E+07  0.2934729E+01  0.1321433E+01 -0.1427350E+00  0.5297532E+04 -0.1136395E+01  0.8654406E+03 -0.1491465E+01  0.5403306E+07  0.2946996E+01  0.1594089E+03 -0.1937398E+00
  0.2054143E+01  0.7027372E+06 -0.2961342E+01  0.1010320E+01 -0.7352201E+00  0.3011597E+04 -0.9878849E+00  0.7060565E+03 -0.1110888E+01  0.3291196E+07 -0.2963951E+01  0.1697374E+03  0.4014272E+00
  0.2104000E+01  0.7755798E+06 -0.1830243E+01  0.9723616E+00 -0.1514207E+01  0.1849625E+04 -0.4595248E+00  0.5442856E+03 -0.6919240E+00  0.3610163E+07 -0.1845330E+01  0.2013474E+03  0.7826629E+00
  0.2153857E+01  0.1142746E+07 -0.1579413E+01  0.7544619E+00 -0.1840862E+01  0.1711789E+04 -0.7637531E-01  0.4192891E+03 -0.2217873E+00  0.5421462E+07 -0.1581675E+01  0.1877158E+03  0.1227481E+01
  0.2203714E+01  0.9992716E+06 -0.1567097E+01  0.1001083E+01 -0.8794807E+00  0.1441415E+04 -0.6001503E-01  0.3288056E+03  0.2480630E+00  0.4847551E+07 -0.1566295E+01  0.1901394E+03  0.1981012E+01
  0.2253572E+01  0.5305250E+06 -0.1395546E+01  0.2085512E+01 -0.7414744E+00  0.9245563E+03 -0.1666841E+00  0.2536835E+03  0.6986854E+00  0.2632133E+07 -0.1396990E+01  0.2521217E+03  0.2568462E+01
  0.2303428E+01  0.2867225E+06 -0.5838006E+00  0.2434818E+01 -0.1100267E+01  0.4217786E+03 -0.1763676E+00  0.1897469E+03  0.1129464E+01  0.1436434E+07 -0.5958324E+00  0.2453755E+03  0.2784999E+01
  0.2353286E+01  0.2535778E+06 -0.3440254E+00  0.1501247E+01 -0.1899104E+01  0.1713171E+03  0.5355964E+00  0.1332500E+03  0.1539221E+01  0.1281735E+07 -0.3500283E+00  0.1252575E+03 -0.2832667E+01
  0.2403143E+01  0.1582741E+06 -0.1033097E+01  0.1584472E+01  0.2754075E+01  0.1924226E+03  0.1137350E+01  0.8592100E+02  0.2004730E+01  0.8130563E+06 -0.1034478E+01  0.1902029E+03 -0.1665657E+01
  0.2453000E+01  0.1556714E+06 -0.1598220E+01  0.2030823E+01  0.2249352E+01  0.1597484E+03  0.1105659E+01  0.6067822E+02  0.2516910E+01  0.8104485E+06 -0.1594836E+01  0.2271197E+03 -0.1514784E+01
  0.2502857E+01  0.1922356E+06 -0.1164211E+01  0.1422967E+01 -0.2842782E+01  0.7372511E+02  0.1145266E+01  0.4731584E+02  0.2646805E+01  0.1014594E+07 -0.1162772E+01  0.8241009E+02 -0.1276101E+01
  0.2552714E+01  0.2240414E+06 -0.9100968E+00  0.4876307E+01 -0.2431351E+01  0.3571211E+02  0.2356723E+01  0.2868343E+02  0.2154661E+01  0.1193303E+07 -0.9105434E+00  0.1362008E+03  0.8467332E+00
  0.2602571E+01  0.6735002E+05 -0.1164124E+00  0.6970243E+01 -0.2565044E+01  0.5138660E+02  0.2718078E+01  0.2006874E+02  0.1325204E+01  0.3616408E+06 -0.1165260E+00  0.1798525E+03  0.6164079E+00
  0.2652429E+01  0.2657075E+06  0.1560935E+01  0.5359550E+01 -0.2664829E+01  0.3678661E+02  0.2588906E+01  0.9123659E+01  0.1301235E+01  0.1441092E+07  0.1560741E+01  0.7075328E+02 -0.3036634E+00
  0.2702286E+01  0.3043991E+06  0.1601046E+01  0.3105341E+01 -0.2049389E+01  0.1390394E+02  0.2506781E+01  0.1771799E+02  0.2494398E+01  0.1664624E+07  0.1600786E+01  0.8978603E+02 -0.2383608E+01
  0.2752143E+01  0.1532043E+06  0.2967728E+01  0.4372835E+01 -0.1697739E+01  0.4989379E+01  0.2336795E+01  0.2549737E+02  0.2184809E+01  0.8443294E+06  0.2967617E+01  0.6229532E+02  0.2156010E+01
  0.2802000E+01  0.4199199E+06 -0.2660448E+01  0.4765633E+01 -0.2315474E+01  0.1104546E+02  0.1581711E+01  0.1667579E+02  0.1184728E+01  0.2331521E+07 -0.2660564E+01  0.1916013E+03  0.7121732E+00
  0.2851857E+01  0.3250676E+06 -0.2656344E+01  0.5333350E+01 -0.3105900E+01  0.1904958E+02  0.1367238E+01  0.2254800E+02 -0.1986320E+00  0.1817340E+07 -0.2656436E+01  0.1823935E+03  0.5888097E+00
  0.2901714E+01  0.1672500E+06 -0.6669221E+00  0.4752635E+01  0.3030487E+01  0.2038462E+02  0.1394416E+01  0.2247036E+02 -0.2977926E+00  0.9411171E+06 -0.6669862E+00  0.1451205E+03  0.2113945E+01
  0.2951571E+01  0.3933841E+06 -0.3772212E+00  0.5822187E+01 -0.2681770E+01  0.1949912E+02  0.1559628E+01  0.3217723E+02  0.5137445E+00  0.2226961E+07 -0.3772575E+00  0.3274232E+03  0.2588305E+01
  0.3001428E+01  0.2012027E+06  0.5991740E-01  0.8665831E+01 -0.2553881E+01  0.1826237E+02  0.1574918E+01  0.5451311E+02  0.6664313E+00  0.1145516E+07  0.5993891E-01  0.2530634E+03  0.3057933E+01
  0.3051286E+01  0.3261786E+06  0.1512109E+01  0.8019147E+01 -0.2644580E+01  0.1598753E+02  0.1457323E+01  0.5295092E+02  0.6600105E+00  0.1866948E+07  0.1512101E+01  0.3013161E+03 -0.1927959E+01
  0.3101143E+01  0.3615846E+06  0.1574561E+01  0.5462801E+01 -0.2503067E+01  0.1612695E+02  0.1384128E+01  0.4025187E+02  0.9792172E+00  0.2079946E+07  0.1574592E+01  0.3798670E+03 -0.1389561E+01
  0.3151000E+01  0.1439649E+06  0.2065576E+01  0.5191394E+01 -0.2306869E+01  0.1765923E+02  0.1320389E+01  0.4038411E+02  0.1247519E+01  0.8320239E+06  0.2065570E+01  0.3084504E+03 -0.4484087E+00
  0.3200857E+01  0.1375464E+06  0.3030753E+01  0.5723929E+01 -0.2593179E+01  0.1488550E+02  0.1336121E+01  0.3508592E+02  0.1022276E+01  0.7982991E+06  0.3030880E+01  0.3990124E+03  0.4257903E+00
  0.3250714E+01  0.7255830E+05  0.2304122E+01  0.5764461E+01 -0.2824543E+01  0.1067146E+02  0.1658287E+01  0.2817482E+02  0.6660147E+00  0.4228162E+06  0.2304211E+01  0.3555359E+03  0.1142725E+01
  0.3300571E+01  0.7575829E+05  0.1299092E+01  0.5544628E+01 -0.2724557E+01  0.8708721E+01  0.1625443E+01  0.2949610E+02  0.5982909E+00  0.4434547E+06  0.1299073E+01  0.3354814E+03  0.2112849E+01
  0.3350429E+01  0.9343702E+05  0.1774741E+01  0.5753814E+01 -0.2616272E+01  0.7442839E+01  0.5368093E+00  0.3705890E+02  0.5994830E+00  0.5488871E+06  0.1774380E+01  0.3001028E+03  0.2914381E+01
  0.3400286E+01  0.4996623E+05  0.1889801E+01  0.4947818E+01 -0.2569602E+01  0.9045076E+01 -0.1004863E+00  0.3796141E+02  0.6617143E+00  0.2944291E+06  0.1889863E+01  0.2476797E+03 -0.2439950E+01
  0.3450143E+01  0.5943952E+05 -0.1571078E+01  0.4351151E+01 -0.2602157E+01  0.8269644E+01  0.3811696E+00  0.3760174E+02  0.7261980E+00  0.3514138E+06 -0.1571709E+01  0.1919291E+03 -0.1475517E+01
  0.3500000E+01  0.3191576E+05  0.2272043E-02  0.4118278E+01 -0.2713862E+01  0.1190010E+02  0.6256117E+00  0.3597146E+02  0.7202945E+00  0.1892688E+06  0.2594405E-02  0.1471080E+03 -0.4837692E+00
Zone t="FKforce - beta =  90.000",I=    71,F=POINT
  0.1000000E-01  0.3987150E+00 -0.3104278E+01  0.5276731E+05 -0.1570873E+01  0.4440171E+07 -0.8724754E-08  0.9356191E+06  0.1570608E+01  0.4257274E+04  0.1998174E-02  0.8812987E+02  0.3444537E+00
  0.5985714E-01  0.6845602E+00 -0.3049203E+01  0.3169442E+06 -0.1570788E+01  0.4369076E+07 -0.3179260E-07  0.5583775E+07  0.1570779E+01  0.1559318E+06  0.3246634E-03  0.6441187E+04  0.1559553E+01
  0.1097143E+00  0.7860895E+00 -0.3505554E+00  0.5859609E+06 -0.1570789E+01  0.4196874E+07 -0.2186568E-06  0.1015969E+08  0.1570795E+01  0.5356272E+06  0.1997318E-03  0.4193720E+05  0.1571500E+01
  0.1595714E+00  0.2220353E+01 -0.3103594E+01  0.8644164E+06 -0.1570797E+01  0.3925012E+07 -0.8958502E-07  0.1459798E+08  0.1570795E+01  0.1175661E+07  0.1351245E-03  0.1414156E+06  0.1571078E+01
  0.2094286E+00  0.5597597E+00 -0.2258854E+01  0.1157682E+07 -0.1570797E+01  0.3556190E+07 -0.2946004E-06  0.1881798E+08  0.1570791E+01  0.2134002E+07  0.8775222E-04  0.3644895E+06  0.1570931E+01
  0.2592857E+00  0.1298267E+01 -0.2581080E+01  0.1471222E+07 -0.1570798E+01  0.3095754E+07  0.8663890E-07  0.2269900E+08  0.1570797E+01  0.3506740E+07  0.6300201E-04  0.8234081E+06  0.1570844E+01
  0.3091429E+00  0.1716486E+01  0.3113747E+01  0.1807187E+07 -0.1570798E+01  0.2553534E+07 -0.6783108E-06  0.2602374E+08  0.1570792E+01  0.5428345E+07  0.4859259E-04  0.1734207E+07  0.1570829E+01
  0.3590000E+00  0.3554405E+01 -0.3121827E+01  0.2156168E+07 -0.1570796E+01  0.1946709E+07  0.5078849E-06  0.2838462E+08  0.1570786E+01  0.8034456E+07  0.4254642E-04  0.3488736E+07  0.1570802E+01
  0.4088571E+00  0.2891847E+01  0.3102600E+01  0.2486762E+07 -0.1570797E+01  0.1301797E+07 -0.3715170E-06  0.2912876E+08  0.1570780E+01  0.1134292E+08  0.3676633E-04  0.6693766E+07  0.1570799E+01
  0.4587143E+00  0.4175839E+01  0.3026970E+01  0.2746250E+07 -0.1570797E+01  0.6533656E+06  0.1431741E-05  0.2750287E+08  0.1570773E+01  0.1511212E+08  0.2887222E-04  0.1209121E+08  0.1570802E+01
  0.5085714E+00  0.6197069E+01  0.2964008E+01  0.2877770E+07 -0.1570798E+01  0.4088406E+05  0.1367391E-03  0.2298169E+08  0.1570756E+01  0.1882323E+08  0.2704998E-04  0.2037640E+08  0.1570797E+01
  0.5584285E+00  0.4553653E+01  0.2774338E+01  0.2838505E+07 -0.1570797E+01  0.4945896E+06  0.3141574E+01  0.1550858E+08  0.1570729E+01  0.2179313E+08  0.2407223E-04  0.3200601E+08  0.1570798E+01
  0.6082857E+00  0.3147691E+01  0.2257699E+01  0.2610526E+07 -0.1570798E+01  0.9143304E+06  0.3141575E+01  0.5570145E+07  0.1570573E+01  0.2331431E+08  0.2491349E-04  0.4699824E+08  0.1570796E+01
  0.6581428E+00  0.2951269E+01  0.1065462E+01  0.2208276E+07 -0.1570798E+01  0.1187628E+07  0.3141576E+01  0.5837866E+07 -0.1570575E+01  0.2279198E+08  0.2879834E-04  0.6471435E+08  0.1570796E+01
  0.7080000E+00  0.6005693E+01  0.2718390E+00  0.1684473E+07 -0.1570798E+01  0.1298234E+07  0.3141571E+01  0.1732114E+08 -0.1570728E+01  0.1988475E+08  0.4024849E-04  0.8368504E+08  0.1570796E+01
  0.7578571E+00  0.1088037E+02  0.2341377E+00  0.1130604E+07 -0.1570798E+01  0.1249480E+07  0.3141566E+01  0.2728471E+08 -0.1570762E+01  0.1462697E+08  0.6364760E-04  0.1015799E+09  0.1570796E+01
  0.8077143E+00  0.1479303E+02  0.8172681E-01  0.6678628E+06 -0.1570799E+01  0.1066503E+07  0.3141560E+01  0.3421158E+08 -0.1570784E+01  0.7494463E+07  0.1668208E-03  0.1154264E+09  0.1570796E+01
  0.8575714E+00  0.1626983E+02  0.9448151E-01  0.4259683E+06 -0.1570802E+01  0.7940574E+06  0.3141552E+01  0.3697218E+08 -0.1570801E+01  0.6250591E+06  0.3139000E+01  0.1221262E+09  0.1570795E+01
  0.9074286E+00  0.1327642E+02  0.4547338E-01  0.5107979E+06 -0.1570799E+01  0.4895232E+06  0.3141545E+01  0.3510123E+08 -0.1570820E+01  0.8570492E+07  0.3141351E+01  0.1192520E+09  0.1570795E+01
  0.9572856E+00  0.5491726E+01 -0.4013238E-01  0.9663976E+06 -0.1570797E+01  0.2120093E+06  0.3141541E+01  0.2896567E+08 -0.1570842E+01  0.1514218E+08  0.3141421E+01  0.1059816E+09  0.1570795E+01
  0.1007143E+01  0.5929016E+01 -0.3049348E+01  0.1742259E+07 -0.1570797E+01  0.9882756E+04 -0.3141151E+01  0.1976031E+08 -0.1570874E+01  0.1937747E+08  0.3141433E+01  0.8389869E+08  0.1570796E+01
  0.1057000E+01  0.1927071E+02 -0.3105706E+01  0.2680319E+07 -0.1570796E+01  0.8993710E+05 -0.1990884E-03  0.9308876E+07 -0.1570933E+01  0.2079391E+08  0.3141427E+01  0.5729492E+08  0.1570795E+01
  0.1106857E+01  0.2992693E+02 -0.3110906E+01  0.3535139E+07 -0.1570796E+01  0.8750712E+05 -0.2877605E-03  0.3084673E+06  0.1572586E+01  0.1951561E+08  0.3141409E+01  0.3263078E+08  0.1570797E+01
  0.1156714E+01  0.3434687E+02 -0.3119677E+01  0.4033710E+07 -0.1570796E+01  0.8075342E+04 -0.2675419E-02  0.7229787E+07  0.1570726E+01  0.1623369E+08  0.3141382E+01  0.1699596E+08  0.1570796E+01
  0.1206571E+01  0.3032620E+02 -0.3129821E+01  0.3966322E+07 -0.1570797E+01  0.1069386E+06 -0.3141539E+01  0.1028044E+08  0.1570634E+01  0.1199916E+08  0.3141349E+01  0.1578477E+08  0.1570796E+01
  0.1256429E+01  0.1845268E+02 -0.3122910E+01  0.3282168E+07 -0.1570797E+01  0.2134473E+06  0.3141495E+01  0.9316394E+07  0.1570517E+01  0.7909702E+07  0.3141312E+01  0.3025744E+08  0.1570796E+01
  0.1306286E+01  0.2102011E+01 -0.2947397E+01  0.2148530E+07 -0.1570796E+01  0.2781684E+06  0.3141405E+01  0.5323630E+07  0.1570231E+01  0.4797005E+07  0.3141290E+01  0.5604600E+08  0.1570796E+01
  0.1356143E+01  0.1367519E+02 -0.2932745E-01  0.9322061E+06 -0.1570794E+01  0.2873469E+06  0.3141315E+01  0.1937747E+06  0.1556790E+01  0.3024528E+07  0.3141316E+01  0.8365874E+08  0.1570796E+01
  0.1406000E+01  0.2240370E+02 -0.4658116E-01  0.8398416E+05 -0.1570816E+01  0.2478578E+06  0.3141207E+01  0.3835169E+07 -0.1570326E+01  0.2463958E+07  0.3141368E+01  0.1014738E+09  0.1570796E+01
  0.1455857E+01  0.2174572E+02 -0.5075831E-01  0.4898784E+05  0.1570820E+01  0.1808887E+06  0.3141069E+01  0.4966412E+07 -0.1570678E+01  0.2645032E+07  0.3141335E+01  0.1005809E+09  0.1570796E+01
  0.1505714E+01  0.1336572E+02 -0.7619575E-01  0.5924074E+06 -0.1570799E+01  0.1114542E+06  0.3140898E+01  0.2609959E+07 -0.1571006E+01  0.3002978E+07  0.3141211E+01  0.7952934E+08  0.1570797E+01
  0.1555571E+01  0.2355440E+01 -0.3008660E+00  0.1700768E+07 -0.1570797E+01  0.5846497E+05  0.3140731E+01  0.2231740E+07  0.1571333E+01  0.3111544E+07  0.3141031E+01  0.4633469E+08  0.1570797E+01
  0.1605429E+01  0.5507856E+01 -0.3065778E+01  0.2706537E+07 -0.1570797E+01  0.2932609E+05  0.3140810E+01  0.7275076E+07  0.1570965E+01  0.2808708E+07  0.3140795E+01  0.1576444E+08  0.1570799E+01
  0.1655286E+01  0.6191632E+01 -0.3137893E+01  0.3054168E+07 -0.1570797E+01  0.2047117E+05  0.3141384E+01  0.1000899E+08  0.1570868E+01  0.2182646E+07  0.3140484E+01  0.2192786E+07  0.1570809E+01
  0.1705143E+01  0.3441225E+00  0.3126960E+01  0.2522884E+07 -0.1570797E+01  0.2231456E+05 -0.3141543E+01  0.9083378E+07  0.1570794E+01  0.1454693E+07  0.3140067E+01  0.1131315E+08  0.1570799E+01
  0.1755000E+01  0.7497514E+01 -0.4965859E-02  0.1394093E+07 -0.1570799E+01  0.2533086E+05  0.3141376E+01  0.5239240E+07  0.1570670E+01  0.8374324E+06  0.3139529E+01  0.3582042E+08  0.1570797E+01
  0.1804857E+01  0.1209722E+02 -0.7816647E-02  0.3178651E+06 -0.1570804E+01  0.2416419E+05  0.3140853E+01  0.1032233E+07  0.1569923E+01  0.4403540E+06  0.3139001E+01  0.5888044E+08  0.1570797E+01
  0.1854714E+01  0.1104680E+02 -0.5574209E-02  0.8881461E+05  0.1570822E+01  0.1840265E+05  0.3140047E+01  0.7386244E+06 -0.1569797E+01  0.2543894E+06  0.3138999E+01  0.6452696E+08  0.1570796E+01
  0.1904571E+01  0.5725533E+01  0.1695448E-01  0.3342403E+06 -0.1570801E+01  0.1070399E+05  0.3138624E+01  0.1006376E+07  0.1570480E+01  0.1982172E+06  0.3139553E+01  0.4862575E+08  0.1570795E+01
  0.1954429E+01  0.5305293E+00 -0.2170736E+00  0.1164534E+07 -0.1570796E+01  0.4113300E+04  0.3135037E+01  0.4743160E+07  0.1570818E+01  0.1827174E+06  0.3139562E+01  0.2212481E+08  0.1570793E+01
  0.2004286E+01  0.1028959E+01 -0.2757431E+01  0.1709427E+07 -0.1570798E+01  0.2462655E+03  0.3071435E+01  0.7445050E+07  0.1570842E+01  0.1544581E+06  0.3138621E+01  0.2964667E+07  0.1570787E+01
  0.2054143E+01  0.1036101E+01 -0.1985329E+00  0.1548415E+07 -0.1570799E+01  0.1036811E+04  0.7419162E-02  0.7010989E+07  0.1570843E+01  0.1037440E+06  0.3136369E+01  0.2047136E+07  0.1570835E+01
  0.2104000E+01  0.3542414E+01  0.1360704E+00  0.8596918E+06 -0.1570802E+01  0.8695362E+03  0.2447354E-02  0.4013870E+07  0.1570832E+01  0.4705236E+05  0.3130246E+01  0.1478624E+08  0.1570806E+01
  0.2153857E+01  0.3595258E+01  0.4204791E+00  0.2262796E+06 -0.1570823E+01  0.4045300E+03  0.3803685E-02  0.1089128E+07  0.1570750E+01  0.3841602E+04  0.3030781E+01  0.2612682E+08  0.1570801E+01
  0.2203714E+01  0.1865784E+01  0.1503785E+01  0.8402899E+05 -0.1570824E+01  0.2405987E+03  0.1727169E-01  0.4046193E+06  0.1570454E+01  0.1755354E+05  0.1496755E-01  0.2482841E+08  0.1570795E+01
  0.2253572E+01  0.3234611E+01  0.2832888E+01  0.3444232E+06 -0.1570792E+01  0.4037190E+03  0.1774031E-01  0.1682398E+07  0.1570727E+01  0.2091662E+05  0.5446444E-02  0.1322237E+08  0.1570783E+01
  0.2303428E+01  0.4055675E+01 -0.2992748E+01  0.5712622E+06 -0.1570796E+01  0.6455468E+03  0.1322372E-01  0.2845019E+07  0.1570781E+01  0.1585497E+05  0.1548966E-02  0.2639360E+07  0.1570738E+01
  0.2353286E+01  0.2753662E+01 -0.2709942E+01  0.4963415E+06 -0.1570805E+01  0.7497655E+03  0.1057348E-01  0.2515249E+07  0.1570802E+01  0.1050777E+05  0.4102814E-03  0.6392310E+05  0.1571379E+01
  0.2403143E+01  0.1662648E+01  0.3004771E+01  0.2683183E+06 -0.1570827E+01  0.6686029E+03  0.9445406E-02  0.1384202E+07  0.1570817E+01  0.8152846E+04  0.3597650E-02  0.1694708E+07  0.1570911E+01
  0.2453000E+01  0.3365597E+01  0.2441254E+01  0.1589484E+06 -0.1570839E+01  0.4871696E+03  0.1031074E-01  0.8341281E+06  0.1570819E+01  0.7985759E+04  0.7025544E-02  0.5442077E+06  0.1571053E+01
  0.2502857E+01  0.4984837E+01  0.2645803E+01  0.1590538E+06 -0.1570809E+01  0.3148137E+03  0.1536221E-01  0.8423158E+06  0.1570797E+01  0.7907603E+04  0.6410783E-02  0.3107916E+07 -0.1570766E+01
  0.2552714E+01  0.5002450E+01  0.3086554E+01  0.4784851E+05 -0.1570788E+01  0.2060269E+03  0.2737273E-01  0.2572156E+06  0.1570714E+01  0.6776182E+04  0.1803607E-02  0.3510187E+07 -0.1570735E+01
  0.2602571E+01  0.5058458E+01 -0.2727934E+01  0.1797195E+06  0.1570808E+01  0.1526827E+03  0.4362798E-01  0.9640606E+06 -0.1570759E+01  0.4867289E+04 -0.5993463E-02  0.4981046E+06 -0.1570602E+01
  0.2652429E+01  0.5289329E+01 -0.2809273E+01  0.2341770E+06  0.1570822E+01  0.1225346E+03  0.5827884E-01  0.1268493E+07 -0.1570768E+01  0.3029513E+04 -0.1269359E-01  0.1534038E+07 -0.1570864E+01
  0.2702286E+01  0.5745972E+01  0.3031959E+01  0.7865578E+04  0.1571594E+01  0.9407040E+02  0.7388686E-01  0.4200379E+05 -0.1570332E+01  0.1806171E+04 -0.9692035E-02  0.9383030E+07 -0.1570809E+01
  0.2752143E+01  0.4940750E+01  0.2853136E+01  0.1454604E+06 -0.1570825E+01  0.6321876E+02  0.1042187E+00  0.8026449E+06  0.1570786E+01  0.1226594E+04 -0.1801586E-02  0.1487936E+08 -0.1570794E+01
  0.2802000E+01  0.2681132E+01 -0.2899882E+01  0.9537898E+05  0.1570835E+01  0.3454288E+02  0.1892569E+00  0.5286526E+06 -0.1570761E+01  0.1034025E+04 -0.1244696E-01  0.9709395E+07 -0.1570784E+01
  0.2851857E+01  0.4080971E+01 -0.2344085E+01  0.4520193E+06  0.1570807E+01  0.1533716E+02  0.4461100E+00  0.2526524E+07 -0.1570786E+01  0.9046456E+03 -0.3451272E-01  0.1082221E+07 -0.1570750E+01
  0.2901714E+01  0.6420269E+01 -0.2712161E+01  0.4135610E+06  0.1570806E+01  0.1002536E+02  0.7135422E+00  0.2327035E+07 -0.1570789E+01  0.6286757E+03 -0.4987658E-01  0.2233506E+07 -0.1570803E+01
  0.2951571E+01  0.6587134E+01 -0.2970171E+01  0.6140034E+05  0.1570852E+01  0.1249336E+02  0.5273913E+00  0.3477130E+06 -0.1570763E+01  0.2940913E+03 -0.6761699E-01  0.1108373E+08 -0.1570795E+01
  0.3001428E+01  0.2180839E+01 -0.2391520E+01  0.3831962E+05 -0.1570963E+01  0.1228682E+02  0.5140869E+00  0.2183244E+06  0.1570643E+01  0.1925242E+03 -0.1166197E+00  0.1302034E+08 -0.1570796E+01
  0.3051286E+01  0.3944536E+01 -0.8471050E+00  0.2303880E+06  0.1570836E+01  0.6162256E+01  0.1236401E+01  0.1318327E+07 -0.1570759E+01  0.3666015E+03 -0.9165725E-01  0.5087924E+07 -0.1570807E+01
  0.3101143E+01  0.3603806E+01 -0.1832767E+01  0.3781334E+06  0.1570812E+01  0.7038039E+01  0.2272898E+01  0.2175089E+07 -0.1570787E+01  0.4660545E+03 -0.7405259E-01  0.2689151E+04 -0.1571368E+01
  0.3151000E+01  0.6398516E+01 -0.2650322E+01  0.1960030E+06  0.1570801E+01  0.4762423E+01  0.1582414E+01  0.1133009E+07 -0.1570803E+01  0.2876142E+03 -0.9485397E-01  0.3230232E+07 -0.1570755E+01
  0.3200857E+01  0.3567289E+01 -0.1946702E+01  0.4401795E+05  0.1570900E+01  0.7467749E+01  0.6195838E+00  0.2555756E+06 -0.1570702E+01  0.1281717E+03 -0.2451913E+00  0.5520613E+07 -0.1570786E+01
  0.3250714E+01  0.7711366E+01 -0.5150412E+00  0.9871393E+05  0.1570916E+01  0.4569333E+01  0.1096285E+01  0.5751447E+06 -0.1570678E+01  0.2423063E+03 -0.1647382E+00  0.2374874E+07 -0.1570858E+01
  0.3300571E+01  0.5976796E+01 -0.5305719E+00  0.1201557E+06  0.1570875E+01  0.6170934E+01  0.2528327E+01  0.7029822E+06 -0.1570735E+01  0.3667936E+03 -0.9345911E-01  0.7022040E+05 -0.1572080E+01
  0.3350429E+01  0.3612810E+01 -0.2177165E+01  0.6481500E+05  0.1570827E+01  0.4679473E+01  0.2497156E+01  0.3808081E+06 -0.1570804E+01  0.2293392E+03 -0.1228210E+00  0.2002222E+06  0.1570085E+01
  0.3400286E+01  0.4028897E+01 -0.1430275E+01  0.9041109E+05  0.1570842E+01  0.2303064E+01  0.1400364E+01  0.5328636E+06 -0.1570759E+01  0.7637706E+02 -0.4703662E+00  0.2453972E+07  0.1570757E+01
  0.3450143E+01  0.1048193E+02 -0.3824627E+00  0.6705652E+05  0.1570959E+01  0.2928236E+01  0.2403165E+01  0.3963261E+06 -0.1570636E+01  0.1216262E+03 -0.3279973E+00  0.3272771E+07  0.1570839E+01
  0.3500000E+01  0.8760823E+01 -0.2353430E+00  0.8965471E+05 -0.1570898E+01  0.6668863E+01  0.2903894E+01  0.5317276E+06  0.1570709E+01  0.1406864E+03 -0.1999400E+00  0.4249312E+06  0.1571040E+01
Zone t="FKforce - beta = 180.000",I=    71,F=POINT
  0.1000000E-01  0.5276723E+05  0.1570800E+01  0.3958405E+00  0.4100228E-01  0.4440188E+07 -0.8695551E-07  0.1417488E+03  0.6374501E-01  0.9356141E+06  0.1575161E+01  0.1266376E+02 -0.3107142E+01
  0.5985714E-01  0.3169452E+06  0.1570792E+01  0.1848449E+01  0.5450944E-01  0.4369064E+07 -0.1879882E-04  0.6785531E+02  0.2438912E+01  0.5585822E+07  0.1598735E+01  0.4347840E+02 -0.3039048E+01
  0.1097143E+00  0.5859602E+06  0.1570725E+01  0.1565460E+01  0.3135335E+01  0.4196900E+07 -0.1254779E-03  0.1801663E+03  0.2689258E+01  0.1017369E+08  0.1623481E+01  0.2234915E+02 -0.4166138E+00
  0.1595714E+00  0.8644174E+06  0.1570553E+01  0.1860470E+01  0.1977301E+00  0.3925000E+07 -0.4443957E-03  0.1367092E+03  0.1515793E+01  0.1464501E+08  0.1651060E+01  0.1053562E+03 -0.2893894E+01
  0.2094286E+00  0.1157687E+07  0.1570152E+01  0.1158488E+01  0.3815141E+00  0.3556196E+07 -0.1230169E-02  0.1791178E+03  0.2109188E+01  0.1893800E+08  0.1683406E+01  0.1781120E+02  0.1775339E+00
  0.2592857E+00  0.1471223E+07  0.1569275E+01  0.3761474E+00  0.1748270E+01  0.3095778E+07 -0.3078995E-02  0.2745136E+03  0.2211964E+01  0.2296617E+08  0.1723312E+01  0.3090960E+02  0.3017488E+01
  0.3091429E+00  0.1807196E+07  0.1567408E+01  0.5513527E+00  0.2557551E+01  0.2553593E+07 -0.7505902E-02  0.4629573E+03  0.2537416E+01  0.2657786E+08  0.1774715E+01  0.1029278E+03 -0.3043950E+01
  0.3590000E+00  0.2156215E+07  0.1563463E+01  0.2553157E+01  0.2727058E+01  0.1947022E+07 -0.1870114E-01  0.4867129E+03  0.2436696E+01  0.2948104E+08  0.1842839E+01  0.5638729E+01 -0.2020889E+01
  0.4088571E+00  0.2487004E+07  0.1555326E+01  0.2927550E+01  0.3082056E+01  0.1303322E+07 -0.5003697E-01  0.6733123E+03  0.2543368E+01  0.3120018E+08  0.1933998E+01  0.6011198E+02  0.2623793E+00