 VARIABLES="X" "Y" "Z" "abs(p) (Pa)" "angle(p) (rad)"
ZONE N=   3650,E =    3624, F=FEPOINT, ET=QUADRILATERAL
  -56.5164909      -2.47323704      -20.0000000       3801.27271       1.57287765    
  -55.4176407      -3.26747894      -20.0000000       3801.27271       1.57287765    
  -55.9264717      -4.64953518      -20.0000000       3801.27271       1.57287765    
  -56.9148483      -3.51935697      -20.0000000       3801.27271       1.57287765    
  -56.9148483      -3.51935697      -20.0000000       4441.25488       1.57286692    
  -57.6058807      -2.18402195      -20.0000000       4441.25488       1.57286692    
  -56.5164909      -2.47323704      -20.0000000       4441.25488       1.57286692    
  -56.5164909      -2.47323704      -20.0000000       4441.25488       1.57286692    
  -54.6953812      -5.51239681      -20.0000000       3227.32886       1.57278991    
  -55.9264717      -4.64953518      -20.0000000       3227.32886       1.57278991    
  -55.4176407      -3.26747894      -20.0000000       3227.32886       1.57278991    
  -54.2450790      -3.94889998      -20.0000000       3227.32886       1.57278991    
  -54.2450790      -3.94889998      -20.0000000       2669.24829       1.57261014    
  -52.9834785      -4.46340179      -20.0000000       2669.24829       1.57261014    
  -53.2955093      -6.05576801      -20.0000000       2669.24829       1.57261014    
  -54.6953812      -5.51239681      -20.0000000       2669.24829       1.57261014    
  -56.5223999      -1.11500299      -20.0000000       4309.10742       1.57295012    
  -56.5164909      -2.47323704      -20.0000000       4309.10742       1.57295012    
  -57.6058807      -2.18402195      -20.0000000       4309.10742       1.57295012    
  -57.9577713     -0.724482894      -20.0000000       4309.10742       1.57295012    
  -56.5164909      -2.47323704      -20.0000000       3302.34082       1.57304120    
  -56.5223999      -1.11500299      -20.0000000       3302.34082       1.57304120    
  -55.1657600      -1.76926601      -20.0000000       3302.34082       1.57304120    
  -55.4176407      -3.26747894      -20.0000000       3302.34082       1.57304120    
  -54.2450790      -3.94889998      -20.0000000       2765.30981       1.57292902    
  -55.4176407      -3.26747894      -20.0000000       2765.30981       1.57292902    
  -55.1657600      -1.76926601      -20.0000000       2765.30981       1.57292902    
  -53.8819199      -2.32836604      -20.0000000       2765.30981       1.57292902    
  -52.9834785      -4.46340179      -20.0000000       2142.27173       1.57227457    
  -51.6155815      -4.69134283      -20.0000000       2142.27173       1.57227457    
  -51.8049088      -6.24783087      -20.0000000       2142.27173       1.57227457    
  -53.2955093      -6.05576801      -20.0000000       2142.27173       1.57227457    
  -56.3964119      0.254809886      -20.0000000       4280.87988       1.57297921    
  -56.5223999      -1.11500299      -20.0000000       4280.87988       1.57297921    
  -57.9577713     -0.724482894      -20.0000000       4280.87988       1.57297921    
  -57.9511719      0.779103875      -20.0000000       4280.87988       1.57297921    
  -53.8819199      -2.32836604      -20.0000000       2361.38770       1.57268858    
  -52.7235603      -2.92538095      -20.0000000       2361.38770       1.57268858    
  -52.9834785      -4.46340179      -20.0000000       2361.38770       1.57268858    
  -54.2450790      -3.94889998      -20.0000000       2361.38770       1.57268858    
  -56.5223999      -1.11500299      -20.0000000       3150.41968       1.57309282    
  -56.3964119      0.254809886      -20.0000000       3150.41968       1.57309282    
  -54.8835487     -0.325594515      -20.0000000       3150.41968       1.57309282    
  -55.1657600      -1.76926601      -20.0000000       3150.41968       1.57309282    
  -50.2990494      -6.25000000      -20.0000000       1712.87891       1.57168365    
  -51.8049088      -6.24783087      -20.0000000       1712.87891       1.57168365    
  -51.6155815      -4.69134283      -20.0000000       1712.87891       1.57168365    
  -50.1911316      -4.70199823      -20.0000000       1712.87891       1.57168365    
  -53.8819199      -2.32836604      -20.0000000       2565.07715       1.57294118    
  -55.1657600      -1.76926601      -20.0000000       2565.07715       1.57294118    
  -54.8835487     -0.325594515      -20.0000000       2565.07715       1.57294118    
  -53.3087082     -0.726661325      -20.0000000       2565.07715       1.57294118    
  -52.7235603      -2.92538095      -20.0000000       2006.33069       1.57230043    
  -51.4683685      -3.18431592      -20.0000000       2006.33069       1.57230043    
  -51.6155815      -4.69134283      -20.0000000       2006.33069       1.57230043    
  -52.9834785      -4.46340179      -20.0000000       2006.33069       1.57230043    
  -56.1067696       1.60355306      -20.0000000       4173.66602       1.57297087    
  -56.3964119      0.254809886      -20.0000000       4173.66602       1.57297087    
  -57.9511719      0.779103875      -20.0000000       4173.66602       1.57297087    
  -57.5863686       2.23558092      -20.0000000       4173.66602       1.57297087    
  -56.3964119      0.254809886      -20.0000000       3046.80420       1.57308173    
  -56.1067696       1.60355306      -20.0000000       3046.80420       1.57308173    
  -54.6488190       1.11988902      -20.0000000       3046.80420       1.57308173    
  -54.8835487     -0.325594515      -20.0000000       3046.80420       1.57308173    
  -51.8859215      -1.67511594      -20.0000000       2171.22778       1.57261288    
  -52.7235603      -2.92538095      -20.0000000       2171.22778       1.57261288    
  -53.8819199      -2.32836604      -20.0000000       2171.22778       1.57261288    
  -53.3087082     -0.726661325      -20.0000000       2171.22778       1.57261288    
  -48.7928200      -6.25000000      -20.0000000       1400.17639       1.57082129    
  -50.2990494      -6.25000000      -20.0000000       1400.17639       1.57082129    
  -50.1911316      -4.70199823      -20.0000000       1400.17639       1.57082129    
  -48.7387619      -4.69004917      -20.0000000       1400.17639       1.57082129    
  -50.1911316      -4.70199823      -20.0000000       1695.34546       1.57172716    
  -51.6155815      -4.69134283      -20.0000000       1695.34546       1.57172716    
  -51.4683685      -3.18431592      -20.0000000       1695.34546       1.57172716    
  -50.1564102      -3.12996602      -20.0000000       1695.34546       1.57172716    
  -54.6488190       1.11988902      -20.0000000       2460.99268       1.57289922    
  -53.2043991       1.01675200      -20.0000000       2460.99268       1.57289922    
  -53.3087082     -0.726661325      -20.0000000       2460.99268       1.57289922    
  -54.8835487     -0.325594515      -20.0000000       2460.99268       1.57289922    
  -51.4683685      -3.18431592      -20.0000000       1950.84705       1.57227898    
  -52.7235603      -2.92538095      -20.0000000       1950.84705       1.57227898    
  -51.8859215      -1.67511594      -20.0000000       1950.84705       1.57227898    
  -51.8859215      -1.67511594      -20.0000000       1950.84705       1.57227898    
  -55.6295395       2.91055298      -20.0000000       3972.32642       1.57292521    
  -56.1067696       1.60355306      -20.0000000       3972.32642       1.57292521    
  -57.5863686       2.23558092      -20.0000000       3972.32642       1.57292521    
  -56.8836594       3.56473303      -20.0000000       3972.32642       1.57292521    
  -47.2866096      -6.25000000      -20.0000000       1163.91785       1.56977022    
  -48.7928200      -6.25000000      -20.0000000       1163.91785       1.56977022    
  -48.7387619      -4.69004917      -20.0000000       1163.91785       1.56977022    
  -47.2626686      -4.68801212      -20.0000000       1163.91785       1.56977022    
  -48.7387619      -4.69004917      -20.0000000       1440.41272       1.57097292    
  -50.1911316      -4.70199823      -20.0000000       1440.41272       1.57097292    
  -50.1564102      -3.12996602      -20.0000000       1440.41272       1.57097292    
  -48.7254105      -3.12169194      -20.0000000       1440.41272       1.57097292    
  -50.1564102      -3.12996602      -20.0000000       1726.56128       1.57182002    
  -51.4683685      -3.18431592      -20.0000000       1726.56128       1.57182002    
  -51.8859215      -1.67511594      -20.0000000       1726.56128       1.57182002    
  -50.2854195      -1.59545600      -20.0000000       1726.56128       1.57182002    
  -54.6488190       1.11988902      -20.0000000       2953.12451       1.57301426    
  -56.1067696       1.60355306      -20.0000000       2953.12451       1.57301426    
  -55.6295395       2.91055298      -20.0000000       2953.12451       1.57301426    
  -54.3531990       2.57653904      -20.0000000       2953.12451       1.57301426    
  -51.7686501     -0.191007897      -20.0000000       2012.92859       1.57241821    
  -51.8859215      -1.67511594      -20.0000000       2012.92859       1.57241821    
  -53.3087082     -0.726661325      -20.0000000       2012.92859       1.57241821    
  -53.3087082     -0.726661325      -20.0000000       2012.92859       1.57241821    
  -51.7686501     -0.191007897      -20.0000000       2059.97656       1.57249737    
  -53.3087082     -0.726661325      -20.0000000       2059.97656       1.57249737    
  -53.2043991       1.01675200      -20.0000000       2059.97656       1.57249737    
  -51.7500000       1.29565406      -20.0000000       2059.97656       1.57249737    
  -53.0367393       2.70281792      -20.0000000       2419.69897       1.57282805    
  -53.2043991       1.01675200      -20.0000000       2419.69897       1.57282805    
  -54.6488190       1.11988902      -20.0000000       2419.69897       1.57282805    
  -54.3531990       2.57653904      -20.0000000       2419.69897       1.57282805    
  -45.7804108      -6.25000000      -20.0000000       980.389526       1.56866109    
  -47.2866096      -6.25000000      -20.0000000       980.389526       1.56866109    
  -47.2626686      -4.68801212      -20.0000000       980.389526       1.56866109    
  -45.7679100      -4.68779421      -20.0000000       980.389526       1.56866109    
  -47.2626686      -4.68801212      -20.0000000       1229.84338       1.57008755    
  -48.7387619      -4.69004917      -20.0000000       1229.84338       1.57008755    
  -48.7254105      -3.12169194      -20.0000000       1229.84338       1.57008755    
  -47.2550507      -3.12222195      -20.0000000       1229.84338       1.57008755    
  -54.5736809       4.04919481      -20.0000000       3566.89209       1.57285011    
  -55.6295395       2.91055298      -20.0000000       3566.89209       1.57285011    
  -56.8836594       3.56473303      -20.0000000       3566.89209       1.57285011    
  -55.8850899       4.68635893      -20.0000000       3566.89209       1.57285011    
  -48.7254105      -3.12169194      -20.0000000       1472.11572       1.57104838    
  -50.1564102      -3.12996602      -20.0000000       1472.11572       1.57104838    
  -50.2854195      -1.59545600      -20.0000000       1472.11572       1.57104838    
  -48.7658615      -1.56390297      -20.0000000       1472.11572       1.57104838    
  -50.2854195      -1.59545600      -20.0000000       1750.86536       1.57188535    
  -51.8859215      -1.67511594      -20.0000000       1750.86536       1.57188535    
  -51.7686501     -0.191007897      -20.0000000       1750.86536       1.57188535    
  -50.2816200      -7.23225027E-02  -20.0000000       1750.86536       1.57188535    
  -55.6295395       2.91055298      -20.0000000       2877.30469       1.57291937    
  -54.5736809       4.04919481      -20.0000000       2877.30469       1.57291937    
  -54.3531990       2.57653904      -20.0000000       2877.30469       1.57291937    
  -54.3531990       2.57653904      -20.0000000       2877.30469       1.57291937    
  -51.6464691       2.90894699      -20.0000000       2039.43384       1.57243717    
  -51.7500000       1.29565406      -20.0000000       2039.43384       1.57243717    
  -53.2043991       1.01675200      -20.0000000       2039.43384       1.57243717    
  -53.0367393       2.70281792      -20.0000000       2039.43384       1.57243717    
  -44.2742119      -6.25000000      -20.0000000       838.984009       1.56764889    
  -45.7804108      -6.25000000      -20.0000000       838.984009       1.56764889    
  -45.7679100      -4.68779421      -20.0000000       838.984009       1.56764889    
  -44.2670212      -4.68766403      -20.0000000       838.984009       1.56764889    
  -45.7679100      -4.68779421      -20.0000000       1059.07385       1.56920254    
  -47.2626686      -4.68801212      -20.0000000       1059.07385       1.56920254    
  -47.2550507      -3.12222195      -20.0000000       1059.07385       1.56920254    
  -45.7611885      -3.12411094      -20.0000000       1059.07385       1.56920254    
  -51.7500000       1.29565406      -20.0000000       1740.55225       1.57186794    
  -50.2459984       1.47492099      -20.0000000       1740.55225       1.57186794    
  -50.2816200      -7.23225027E-02  -20.0000000       1740.55225       1.57186794    
  -51.7686501     -0.191007897      -20.0000000       1740.55225       1.57186794    
  -47.2550507      -3.12222195      -20.0000000       1266.77856       1.57018948    
  -48.7254105      -3.12169194      -20.0000000       1266.77856       1.57018948    
  -48.7658615      -1.56390297      -20.0000000       1266.77856       1.57018948    
  -47.2643318      -1.55986798      -20.0000000       1266.77856       1.57018948    
  -48.7658615      -1.56390297      -20.0000000       1491.79968       1.57109165    
  -50.2854195      -1.59545600      -20.0000000       1491.79968       1.57109165    
  -50.2816200      -7.23225027E-02  -20.0000000       1491.79968       1.57109165    
  -48.7753716      -1.42937005E-02  -20.0000000       1491.79968       1.57109165    
  -54.5736809       4.04919481      -20.0000000       2463.18091       1.57274461    
  -53.0954399       4.36336088      -20.0000000       2463.18091       1.57274461    
  -53.0367393       2.70281792      -20.0000000       2463.18091       1.57274461    
  -54.3531990       2.57653904      -20.0000000       2463.18091       1.57274461    
  -54.6465797       5.53822613      -20.0000000       3336.37354       1.57272649    
  -54.5736809       4.04919481      -20.0000000       3336.37354       1.57272649    
  -55.8850899       4.68635893      -20.0000000       3336.37354       1.57272649    
  -55.8850899       4.68635893      -20.0000000       3336.37354       1.57272649    
  -44.2670212      -4.68766403      -20.0000000       731.535095       1.56683373    
  -42.7620697      -4.68767691      -20.0000000       731.535095       1.56683373    
  -42.7680206      -6.25000000      -20.0000000       731.535095       1.56683373    
  -44.2742119      -6.25000000      -20.0000000       731.535095       1.56683373    
  -44.2670212      -4.68766403      -20.0000000       923.305420       1.56846881    
  -45.7679100      -4.68779421      -20.0000000       923.305420       1.56846881    
  -45.7611885      -3.12411094      -20.0000000       923.305420       1.56846881    
  -44.2611694      -3.12488103      -20.0000000       923.305420       1.56846881    
  -45.7611885      -3.12411094      -20.0000000       1100.08911       1.56936407    
  -47.2550507      -3.12222195      -20.0000000       1100.08911       1.56936407    
  -47.2643318      -1.55986798      -20.0000000       1100.08911       1.56936407    
  -45.7603798      -1.56126106      -20.0000000       1100.08911       1.56936407    
  -50.2459984       1.47492099      -20.0000000       1727.84961       1.57183075    
  -51.7500000       1.29565406      -20.0000000       1727.84961       1.57183075    
  -51.6464691       2.90894699      -20.0000000       1727.84961       1.57183075    
  -50.2011604       3.04989505      -20.0000000       1727.84961       1.57183075    
  -54.6465797       5.53822613      -20.0000000       2693.99561       1.57261956    
  -53.2416306       6.06926107      -20.0000000       2693.99561       1.57261956    
  -53.0954399       4.36336088      -20.0000000       2693.99561       1.57261956    
  -54.5736809       4.04919481      -20.0000000       2693.99561       1.57261956    
  -47.2643318      -1.55986798      -20.0000000       1285.06604       1.57022572    
  -48.7658615      -1.56390297      -20.0000000       1285.06604       1.57022572    
  -48.7753716      -1.42937005E-02  -20.0000000       1285.06604       1.57022572    
  -47.2657204       0.00000000      -20.0000000       1285.06604       1.57022572    
  -48.7753716      -1.42937005E-02  -20.0000000       1490.01965       1.57108605    
  -50.2816200      -7.23225027E-02  -20.0000000       1490.01965       1.57108605    
  -50.2459984       1.47492099      -20.0000000       1490.01965       1.57108605    
  -48.7560692       1.53868604      -20.0000000       1490.01965       1.57108605    
  -51.6464691       2.90894699      -20.0000000       2044.49500       1.57236314    
  -53.0367393       2.70281792      -20.0000000       2044.49500       1.57236314    
  -53.0954399       4.36336088      -20.0000000       2044.49500       1.57236314    
  -51.6648903       4.56408405      -20.0000000       2044.49500       1.57236314    
  -41.2618294      -6.25000000      -20.0000000       652.368530       1.56625438    
  -42.7680206      -6.25000000      -20.0000000       652.368530       1.56625438    
  -42.7620697      -4.68767691      -20.0000000       652.368530       1.56625438    
  -41.2566490      -4.68782711      -20.0000000       652.368530       1.56625438    
  -44.2611694      -3.12488103      -20.0000000       817.310486       1.56797695    
  -42.7563400      -3.12513494      -20.0000000       817.310486       1.56797695    
  -42.7620697      -4.68767691      -20.0000000       817.310486       1.56797695    
  -44.2670212      -4.68766403      -20.0000000       817.310486       1.56797695    
  -44.2611694      -3.12488103      -20.0000000       966.426941       1.56872153    
  -45.7611885      -3.12411094      -20.0000000       966.426941       1.56872153    
  -45.7603798      -1.56126106      -20.0000000       966.426941       1.56872153    
  -44.2565308      -1.56226599      -20.0000000       966.426941       1.56872153    
  -45.7603798      -1.56126106      -20.0000000       1118.80859       1.56941259    
  -47.2643318      -1.55986798      -20.0000000       1118.80859       1.56941259    
  -47.2657204       0.00000000      -20.0000000       1118.80859       1.56941259    
  -45.7582893       0.00000000      -20.0000000       1118.80859       1.56941259    
  -47.2657204       0.00000000      -20.0000000       1284.27185       1.57022226    
  -48.7753716      -1.42937005E-02  -20.0000000       1284.27185       1.57022226    
  -48.7560692       1.53868604      -20.0000000       1284.27185       1.57022226    
  -47.2535896       1.55706894      -20.0000000       1284.27185       1.57022226    
  -48.7560692       1.53868604      -20.0000000       1472.19617       1.57105005    
  -50.2459984       1.47492099      -20.0000000       1472.19617       1.57105005    
  -50.2011604       3.04989505      -20.0000000       1472.19617       1.57105005    
  -48.7281189       3.10503101      -20.0000000       1472.19617       1.57105005    
  -50.2011604       3.04989505      -20.0000000       1712.33630       1.57177126    
  -51.6464691       2.90894699      -20.0000000       1712.33630       1.57177126    
  -51.6648903       4.56408405      -20.0000000       1712.33630       1.57177126    
  -50.2067184       4.64797401      -20.0000000       1712.33630       1.57177126    
  -51.6648903       4.56408405      -20.0000000       2139.75635       1.57228076    
  -53.0954399       4.36336088      -20.0000000       2139.75635       1.57228076    
  -53.2416306       6.06926107      -20.0000000       2139.75635       1.57228076    
  -51.7500000       6.25000000      -20.0000000       2139.75635       1.57228076    
  -39.7556496      -6.25000000      -20.0000000       596.281189       1.56591702    
  -41.2618294      -6.25000000      -20.0000000       596.281189       1.56591702    
  -41.2566490      -4.68782711      -20.0000000       596.281189       1.56591702    
  -39.7507591      -4.68851089      -20.0000000       596.281189       1.56591702    
  -41.2566490      -4.68782711      -20.0000000       736.349792       1.56772375    
  -42.7620697      -4.68767691      -20.0000000       736.349792       1.56772375    
  -42.7563400      -3.12513494      -20.0000000       736.349792       1.56772375    
  -41.2511406      -3.12541890      -20.0000000       736.349792       1.56772375    
  -44.2565308      -1.56226599      -20.0000000       860.817993       1.56834996    
  -42.7509499      -1.56253600      -20.0000000       860.817993       1.56834996    
  -42.7563400      -3.12513494      -20.0000000       860.817993       1.56834996    
  -44.2611694      -3.12488103      -20.0000000       860.817993       1.56834996    
  -44.2565308      -1.56226599      -20.0000000       985.629761       1.56879711    
  -45.7603798      -1.56126106      -20.0000000       985.629761       1.56879711    
  -45.7582893       0.00000000      -20.0000000       985.629761       1.56879711    
  -44.2515602       0.00000000      -20.0000000       985.629761       1.56879711    
  -45.7582893       0.00000000      -20.0000000       1118.12048       1.56940877    
  -47.2657204       0.00000000      -20.0000000       1118.12048       1.56940877    
  -47.2535896       1.55706894      -20.0000000       1118.12048       1.56940877    
  -45.7509003       1.56100297      -20.0000000       1118.12048       1.56940877    
  -47.2535896       1.55706894      -20.0000000       1265.21704       1.57018173    
  -48.7560692       1.53868604      -20.0000000       1265.21704       1.57018173    
  -48.7281189       3.10503101      -20.0000000       1265.21704       1.57018173    
  -47.2370110       3.11982203      -20.0000000       1265.21704       1.57018173    
  -48.7281189       3.10503101      -20.0000000       1442.68408       1.57098103    
  -50.2011604       3.04989505      -20.0000000       1442.68408       1.57098103    
  -50.2067184       4.64797401      -20.0000000       1442.68408       1.57098103    
  -48.7241211       4.67746210      -20.0000000       1442.68408       1.57098103    
  -50.2067184       4.64797401      -20.0000000       1710.25952       1.57168245    
  -51.6648903       4.56408405      -20.0000000       1710.25952       1.57168245    
  -51.7500000       6.25000000      -20.0000000       1710.25952       1.57168245    
  -50.2455711       6.25000000      -20.0000000       1710.25952       1.57168245    
  -38.2494698      -6.25000000      -20.0000000       559.077332       1.56580150    
  -39.7556496      -6.25000000      -20.0000000       559.077332       1.56580150    
  -39.7507591      -4.68851089      -20.0000000       559.077332       1.56580150    
  -38.2446404      -4.68936491      -20.0000000       559.077332       1.56580150    
  -39.7507591      -4.68851089      -20.0000000       676.086609       1.56766713    
  -41.2566490      -4.68782711      -20.0000000       676.086609       1.56766713    
  -41.2511406      -3.12541890      -20.0000000       676.086609       1.56766713    
  -39.7453995      -3.12673903      -20.0000000       676.086609       1.56766713    
  -41.2511406      -3.12541890      -20.0000000       778.952148       1.56823862    
  -42.7563400      -3.12513494      -20.0000000       778.952148       1.56823862    
  -42.7509499      -1.56253600      -20.0000000       778.952148       1.56823862    
  -41.2455711      -1.56282198      -20.0000000       778.952148       1.56823862    
  -44.2515602       0.00000000      -20.0000000       880.168457       1.56847298    
  -42.7457504       0.00000000      -20.0000000       880.168457       1.56847298    
  -42.7509499      -1.56253600      -20.0000000       880.168457       1.56847298    
  -44.2565308      -1.56226599      -20.0000000       880.168457       1.56847298    
  -44.2515602       0.00000000      -20.0000000       985.096130       1.56879425    
  -45.7582893       0.00000000      -20.0000000       985.096130       1.56879425    
  -45.7509003       1.56100297      -20.0000000       985.096130       1.56879425    
  -44.2452011       1.56199801      -20.0000000       985.096130       1.56879425    
  -45.7509003       1.56100297      -20.0000000       1098.01794       1.56935179    
  -47.2535896       1.55706894      -20.0000000       1098.01794       1.56935179    
  -47.2370110       3.11982203      -20.0000000       1098.01794       1.56935179    
  -45.7402802       3.12332392      -20.0000000       1098.01794       1.56935179    
  -47.2370110       3.11982203      -20.0000000       1227.10791       1.57007337    
  -48.7281189       3.10503101      -20.0000000       1227.10791       1.57007337    
  -48.7241211       4.67746210      -20.0000000       1227.10791       1.57007337    
  -47.2300911       4.68496799      -20.0000000       1227.10791       1.57007337    
  -48.7241211       4.67746210      -20.0000000       1395.33215       1.57080436    
  -50.2067184       4.64797401      -20.0000000       1395.33215       1.57080436    
  -50.2455711       6.25000000      -20.0000000       1395.33215       1.57080436    
  -48.7411499       6.25000000      -20.0000000       1395.33215       1.57080436    
  -36.7432899      -6.25000000      -20.0000000       537.186035       1.56589389    
  -38.2494698      -6.25000000      -20.0000000       537.186035       1.56589389    
  -38.2446404      -4.68936491      -20.0000000       537.186035       1.56589389    
  -36.7384796      -4.68897390      -20.0000000       537.186035       1.56589389    
  -38.2446404      -4.68936491      -20.0000000       633.356567       1.56773841    
  -39.7507591      -4.68851089      -20.0000000       633.356567       1.56773841    
  -39.7453995      -3.12673903      -20.0000000       633.356567       1.56773841    
  -38.2396507      -3.12933803      -20.0000000       633.356567       1.56773841    
  -39.7453995      -3.12673903      -20.0000000       716.615662       1.56830668    
  -41.2511406      -3.12541890      -20.0000000       716.615662       1.56830668    
  -41.2455711      -1.56282198      -20.0000000       716.615662       1.56830668    
  -39.7399902      -1.56351995      -20.0000000       716.615662       1.56830668    
  -41.2455711      -1.56282198      -20.0000000       798.017456       1.56842411    
  -42.7509499      -1.56253600      -20.0000000       798.017456       1.56842411    
  -42.7457504       0.00000000      -20.0000000       798.017456       1.56842411    
  -41.2401695       0.00000000      -20.0000000       798.017456       1.56842411    
  -44.2452011       1.56199801      -20.0000000       879.729126       1.56847107    
  -42.7402611       1.56238496      -20.0000000       879.729126       1.56847107    
  -42.7457504       0.00000000      -20.0000000       879.729126       1.56847107    
  -44.2515602       0.00000000      -20.0000000       879.729126       1.56847107    
  -44.2452011       1.56199801      -20.0000000       964.461243       1.56870854    
  -45.7509003       1.56100297      -20.0000000       964.461243       1.56870854    
  -45.7402802       3.12332392      -20.0000000       964.461243       1.56870854    
  -44.2380295       3.12447906      -20.0000000       964.461243       1.56870854    
  -45.7402802       3.12332392      -20.0000000       1055.66699       1.56918228    
  -47.2370110       3.11982203      -20.0000000       1055.66699       1.56918228    
  -47.2300911       4.68496799      -20.0000000       1055.66699       1.56918228    
  -45.7329903       4.68700409      -20.0000000       1055.66699       1.56918228    
  -47.2300911       4.68496799      -20.0000000       1157.99585       1.56973696    
  -48.7241211       4.67746210      -20.0000000       1157.99585       1.56973696    
  -48.7411499       6.25000000      -20.0000000       1157.99585       1.56973696    
  -47.2367287       6.25000000      -20.0000000       1157.99585       1.56973696    
  -35.2371101      -6.25000000      -20.0000000       528.140137       1.56617999    
  -36.7432899      -6.25000000      -20.0000000       528.140137       1.56617999    
  -36.7384796      -4.68897390      -20.0000000       528.140137       1.56617999    
  -35.2325211      -4.68835878      -20.0000000       528.140137       1.56617999    
  -36.7384796      -4.68897390      -20.0000000       605.034424       1.56787109    
  -38.2446404      -4.68936491      -20.0000000       605.034424       1.56787109    
  -38.2396507      -3.12933803      -20.0000000       605.034424       1.56787109    
  -36.7339096      -3.12783909      -20.0000000       605.034424       1.56787109    
  -38.2396507      -3.12933803      -20.0000000       671.260864       1.56847405    
  -39.7453995      -3.12673903      -20.0000000       671.260864       1.56847405    
  -39.7399902      -1.56351995      -20.0000000       671.260864       1.56847405    
  -38.2346497      -1.56438303      -20.0000000       671.260864       1.56847405    
  -39.7399902      -1.56351995      -20.0000000       734.847717       1.56854534    
  -41.2455711      -1.56282198      -20.0000000       734.847717       1.56854534    
  -41.2401695       0.00000000      -20.0000000       734.847717       1.56854534    