 VARIABLES="X" "Y" "Z" "abs(p) (Pa)" "angle(p) (rad)"
ZONE N=   3650,E =    3624, F=FEPOINT, ET=QUADRILATERAL
  -56.5164909      -2.47323704      -20.0000000       220.325134       5.34030460E-02
  -55.4176407      -3.26747894      -20.0000000       220.325134       5.34030460E-02
  -55.9264717      -4.64953518      -20.0000000       220.325134       5.34030460E-02
  -56.9148483      -3.51935697      -20.0000000       220.325134       5.34030460E-02
  -56.9148483      -3.51935697      -20.0000000       240.745300       9.24975798E-02
  -57.6058807      -2.18402195      -20.0000000       240.745300       9.24975798E-02
  -56.5164909      -2.47323704      -20.0000000       240.745300       9.24975798E-02
  -56.5164909      -2.47323704      -20.0000000       240.745300       9.24975798E-02
  -54.6953812      -5.51239681      -20.0000000       189.821106      -4.54120934E-02
  -55.9264717      -4.64953518      -20.0000000       189.821106      -4.54120934E-02
  -55.4176407      -3.26747894      -20.0000000       189.821106      -4.54120934E-02
  -54.2450790      -3.94889998      -20.0000000       189.821106      -4.54120934E-02
  -54.2450790      -3.94889998      -20.0000000       155.662430     -0.205270171    
  -52.9834785      -4.46340179      -20.0000000       155.662430     -0.205270171    
  -53.2955093      -6.05576801      -20.0000000       155.662430     -0.205270171    
  -54.6953812      -5.51239681      -20.0000000       155.662430     -0.205270171    
  -56.5223999      -1.11500299      -20.0000000       256.282074      0.126518369    
  -56.5164909      -2.47323704      -20.0000000       256.282074      0.126518369    
  -57.6058807      -2.18402195      -20.0000000       256.282074      0.126518369    
  -57.9577713     -0.724482894      -20.0000000       256.282074      0.126518369    
  -56.5164909      -2.47323704      -20.0000000       242.024704       6.21969216E-02
  -56.5223999      -1.11500299      -20.0000000       242.024704       6.21969216E-02
  -55.1657600      -1.76926601      -20.0000000       242.024704       6.21969216E-02
  -55.4176407      -3.26747894      -20.0000000       242.024704       6.21969216E-02
  -54.2450790      -3.94889998      -20.0000000       223.521301      -6.83256984E-02
  -55.4176407      -3.26747894      -20.0000000       223.521301      -6.83256984E-02
  -55.1657600      -1.76926601      -20.0000000       223.521301      -6.83256984E-02
  -53.8819199      -2.32836604      -20.0000000       223.521301      -6.83256984E-02
  -52.9834785      -4.46340179      -20.0000000       124.582001     -0.464113891    
  -51.6155815      -4.69134283      -20.0000000       124.582001     -0.464113891    
  -51.8049088      -6.24783087      -20.0000000       124.582001     -0.464113891    
  -53.2955093      -6.05576801      -20.0000000       124.582001     -0.464113891    
  -56.3964119      0.254809886      -20.0000000       263.962677      0.138365164    
  -56.5223999      -1.11500299      -20.0000000       263.962677      0.138365164    
  -57.9577713     -0.724482894      -20.0000000       263.962677      0.138365164    
  -57.9511719      0.779103875      -20.0000000       263.962677      0.138365164    
  -53.8819199      -2.32836604      -20.0000000       201.915985     -0.238253310    
  -52.7235603      -2.92538095      -20.0000000       201.915985     -0.238253310    
  -52.9834785      -4.46340179      -20.0000000       201.915985     -0.238253310    
  -54.2450790      -3.94889998      -20.0000000       201.915985     -0.238253310    
  -56.5223999      -1.11500299      -20.0000000       251.964676       5.37587591E-02
  -56.3964119      0.254809886      -20.0000000       251.964676       5.37587591E-02
  -54.8835487     -0.325594515      -20.0000000       251.964676       5.37587591E-02
  -55.1657600      -1.76926601      -20.0000000       251.964676       5.37587591E-02
  -50.2990494      -6.25000000      -20.0000000       106.710297     -0.863115966    
  -51.8049088      -6.24783087      -20.0000000       106.710297     -0.863115966    
  -51.6155815      -4.69134283      -20.0000000       106.710297     -0.863115966    
  -50.1911316      -4.70199823      -20.0000000       106.710297     -0.863115966    
  -53.8819199      -2.32836604      -20.0000000       237.784073     -0.114149086    
  -55.1657600      -1.76926601      -20.0000000       237.784073     -0.114149086    
  -54.8835487     -0.325594515      -20.0000000       237.784073     -0.114149086    
  -53.3087082     -0.726661325      -20.0000000       237.784073     -0.114149086    
  -52.7235603      -2.92538095      -20.0000000       181.157272     -0.464301229    
  -51.4683685      -3.18431592      -20.0000000       181.157272     -0.464301229    
  -51.6155815      -4.69134283      -20.0000000       181.157272     -0.464301229    
  -52.9834785      -4.46340179      -20.0000000       181.157272     -0.464301229    
  -56.1067696       1.60355306      -20.0000000       258.958649      0.126354471    
  -56.3964119      0.254809886      -20.0000000       258.958649      0.126354471    
  -57.9511719      0.779103875      -20.0000000       258.958649      0.126354471    
  -57.5863686       2.23558092      -20.0000000       258.958649      0.126354471    
  -56.3964119      0.254809886      -20.0000000       250.734756       3.11327428E-02
  -56.1067696       1.60355306      -20.0000000       250.734756       3.11327428E-02
  -54.6488190       1.11988902      -20.0000000       250.734756       3.11327428E-02
  -54.8835487     -0.325594515      -20.0000000       250.734756       3.11327428E-02
  -51.8859215      -1.67511594      -20.0000000       221.054291     -0.317253381    
  -52.7235603      -2.92538095      -20.0000000       221.054291     -0.317253381    
  -53.8819199      -2.32836604      -20.0000000       221.054291     -0.317253381    
  -53.3087082     -0.726661325      -20.0000000       221.054291     -0.317253381    
  -48.7928200      -6.25000000      -20.0000000       107.785065      -1.34579146    
  -50.2990494      -6.25000000      -20.0000000       107.785065      -1.34579146    
  -50.1911316      -4.70199823      -20.0000000       107.785065      -1.34579146    
  -48.7387619      -4.69004917      -20.0000000       107.785065      -1.34579146    
  -50.1911316      -4.70199823      -20.0000000       169.034454     -0.755315065    
  -51.6155815      -4.69134283      -20.0000000       169.034454     -0.755315065    
  -51.4683685      -3.18431592      -20.0000000       169.034454     -0.755315065    
  -50.1564102      -3.12996602      -20.0000000       169.034454     -0.755315065    
  -54.6488190       1.11988902      -20.0000000       239.320999     -0.154714882    
  -53.2043991       1.01675200      -20.0000000       239.320999     -0.154714882    
  -53.3087082     -0.726661325      -20.0000000       239.320999     -0.154714882    
  -54.8835487     -0.325594515      -20.0000000       239.320999     -0.154714882    
  -51.4683685      -3.18431592      -20.0000000       204.615509     -0.484896183    
  -52.7235603      -2.92538095      -20.0000000       204.615509     -0.484896183    
  -51.8859215      -1.67511594      -20.0000000       204.615509     -0.484896183    
  -51.8859215      -1.67511594      -20.0000000       204.615509     -0.484896183    
  -55.6295395       2.91055298      -20.0000000       241.469894       8.93307328E-02
  -56.1067696       1.60355306      -20.0000000       241.469894       8.93307328E-02
  -57.5863686       2.23558092      -20.0000000       241.469894       8.93307328E-02
  -56.8836594       3.56473303      -20.0000000       241.469894       8.93307328E-02
  -47.2866096      -6.25000000      -20.0000000       125.890900      -1.77618515    
  -48.7928200      -6.25000000      -20.0000000       125.890900      -1.77618515    
  -48.7387619      -4.69004917      -20.0000000       125.890900      -1.77618515    
  -47.2626686      -4.68801212      -20.0000000       125.890900      -1.77618515    
  -48.7387619      -4.69004917      -20.0000000       167.605316      -1.08932543    
  -50.1911316      -4.70199823      -20.0000000       167.605316      -1.08932543    
  -50.1564102      -3.12996602      -20.0000000       167.605316      -1.08932543    
  -48.7254105      -3.12169194      -20.0000000       167.605316      -1.08932543    
  -50.1564102      -3.12996602      -20.0000000       201.304947     -0.695929825    
  -51.4683685      -3.18431592      -20.0000000       201.304947     -0.695929825    
  -51.8859215      -1.67511594      -20.0000000       201.304947     -0.695929825    
  -50.2854195      -1.59545600      -20.0000000       201.304947     -0.695929825    
  -54.6488190       1.11988902      -20.0000000       238.552185      -5.98391378E-03
  -56.1067696       1.60355306      -20.0000000       238.552185      -5.98391378E-03
  -55.6295395       2.91055298      -20.0000000       238.552185      -5.98391378E-03
  -54.3531990       2.57653904      -20.0000000       238.552185      -5.98391378E-03
  -51.7686501     -0.191007897      -20.0000000       223.669418     -0.424012959    
  -51.8859215      -1.67511594      -20.0000000       223.669418     -0.424012959    
  -53.3087082     -0.726661325      -20.0000000       223.669418     -0.424012959    
  -53.3087082     -0.726661325      -20.0000000       223.669418     -0.424012959    
  -51.7686501     -0.191007897      -20.0000000       226.820145     -0.386641413    
  -53.3087082     -0.726661325      -20.0000000       226.820145     -0.386641413    
  -53.2043991       1.01675200      -20.0000000       226.820145     -0.386641413    
  -51.7500000       1.29565406      -20.0000000       226.820145     -0.386641413    
  -53.0367393       2.70281792      -20.0000000       228.980423     -0.183727577    
  -53.2043991       1.01675200      -20.0000000       228.980423     -0.183727577    
  -54.6488190       1.11988902      -20.0000000       228.980423     -0.183727577    
  -54.3531990       2.57653904      -20.0000000       228.980423     -0.183727577    
  -45.7804108      -6.25000000      -20.0000000       154.219467      -2.09318495    
  -47.2866096      -6.25000000      -20.0000000       154.219467      -2.09318495    
  -47.2626686      -4.68801212      -20.0000000       154.219467      -2.09318495    
  -45.7679100      -4.68779421      -20.0000000       154.219467      -2.09318495    
  -47.2626686      -4.68801212      -20.0000000       175.733429      -1.43786776    
  -48.7387619      -4.69004917      -20.0000000       175.733429      -1.43786776    
  -48.7254105      -3.12169194      -20.0000000       175.733429      -1.43786776    
  -47.2550507      -3.12222195      -20.0000000       175.733429      -1.43786776    
  -54.5736809       4.04919481      -20.0000000       210.994843       1.97955947E-02
  -55.6295395       2.91055298      -20.0000000       210.994843       1.97955947E-02
  -56.8836594       3.56473303      -20.0000000       210.994843       1.97955947E-02
  -55.8850899       4.68635893      -20.0000000       210.994843       1.97955947E-02
  -48.7254105      -3.12169194      -20.0000000       198.127609      -1.01107383    
  -50.1564102      -3.12996602      -20.0000000       198.127609      -1.01107383    
  -50.2854195      -1.59545600      -20.0000000       198.127609      -1.01107383    
  -48.7658615      -1.56390297      -20.0000000       198.127609      -1.01107383    
  -50.2854195      -1.59545600      -20.0000000       215.427963     -0.663562238    
  -51.8859215      -1.67511594      -20.0000000       215.427963     -0.663562238    
  -51.7686501     -0.191007897      -20.0000000       215.427963     -0.663562238    
  -50.2816200      -7.23225027E-02  -20.0000000       215.427963     -0.663562238    
  -55.6295395       2.91055298      -20.0000000       218.846512      -4.72533032E-02
  -54.5736809       4.04919481      -20.0000000       218.846512      -4.72533032E-02
  -54.3531990       2.57653904      -20.0000000       218.846512      -4.72533032E-02
  -54.3531990       2.57653904      -20.0000000       218.846512      -4.72533032E-02
  -51.6464691       2.90894699      -20.0000000       215.625122     -0.408724993    
  -51.7500000       1.29565406      -20.0000000       215.625122     -0.408724993    
  -53.2043991       1.01675200      -20.0000000       215.625122     -0.408724993    
  -53.0367393       2.70281792      -20.0000000       215.625122     -0.408724993    
  -44.2742119      -6.25000000      -20.0000000       185.244446      -2.32101893    
  -45.7804108      -6.25000000      -20.0000000       185.244446      -2.32101893    
  -45.7679100      -4.68779421      -20.0000000       185.244446      -2.32101893    
  -44.2670212      -4.68766403      -20.0000000       185.244446      -2.32101893    
  -45.7679100      -4.68779421      -20.0000000       192.811096      -1.75646806    
  -47.2626686      -4.68801212      -20.0000000       192.811096      -1.75646806    
  -47.2550507      -3.12222195      -20.0000000       192.811096      -1.75646806    
  -45.7611885      -3.12411094      -20.0000000       192.811096      -1.75646806    
  -51.7500000       1.29565406      -20.0000000       216.096680     -0.670480847    
  -50.2459984       1.47492099      -20.0000000       216.096680     -0.670480847    
  -50.2816200      -7.23225027E-02  -20.0000000       216.096680     -0.670480847    
  -51.7686501     -0.191007897      -20.0000000       216.096680     -0.670480847    
  -47.2550507      -3.12222195      -20.0000000       203.181183      -1.33551860    
  -48.7254105      -3.12169194      -20.0000000       203.181183      -1.33551860    
  -48.7658615      -1.56390297      -20.0000000       203.181183      -1.33551860    
  -47.2643318      -1.55986798      -20.0000000       203.181183      -1.33551860    
  -48.7658615      -1.56390297      -20.0000000       211.546402     -0.977501094    
  -50.2854195      -1.59545600      -20.0000000       211.546402     -0.977501094    
  -50.2816200      -7.23225027E-02  -20.0000000       211.546402     -0.977501094    
  -48.7753716      -1.42937005E-02  -20.0000000       211.546402     -0.977501094    
  -54.5736809       4.04919481      -20.0000000       204.374039     -0.193949580    
  -53.0954399       4.36336088      -20.0000000       204.374039     -0.193949580    
  -53.0367393       2.70281792      -20.0000000       204.374039     -0.193949580    
  -54.3531990       2.57653904      -20.0000000       204.374039     -0.193949580    
  -54.6465797       5.53822613      -20.0000000       175.182999      -6.12092093E-02
  -54.5736809       4.04919481      -20.0000000       175.182999      -6.12092093E-02
  -55.8850899       4.68635893      -20.0000000       175.182999      -6.12092093E-02
  -55.8850899       4.68635893      -20.0000000       175.182999      -6.12092093E-02
  -44.2670212      -4.68766403      -20.0000000       213.330490      -2.49541783    
  -42.7620697      -4.68767691      -20.0000000       213.330490      -2.49541783    
  -42.7680206      -6.25000000      -20.0000000       213.330490      -2.49541783    
  -44.2742119      -6.25000000      -20.0000000       213.330490      -2.49541783    
  -44.2670212      -4.68766403      -20.0000000       214.911407      -2.02771568    
  -45.7679100      -4.68779421      -20.0000000       214.911407      -2.02771568    
  -45.7611885      -3.12411094      -20.0000000       214.911407      -2.02771568    
  -44.2611694      -3.12488103      -20.0000000       214.911407      -2.02771568    
  -45.7611885      -3.12411094      -20.0000000       215.869278      -1.64346445    
  -47.2550507      -3.12222195      -20.0000000       215.869278      -1.64346445    
  -47.2643318      -1.55986798      -20.0000000       215.869278      -1.64346445    
  -45.7603798      -1.56126106      -20.0000000       215.869278      -1.64346445    
  -50.2459984       1.47492099      -20.0000000       203.611160     -0.689573824    
  -51.7500000       1.29565406      -20.0000000       203.611160     -0.689573824    
  -51.6464691       2.90894699      -20.0000000       203.611160     -0.689573824    
  -50.2011604       3.04989505      -20.0000000       203.611160     -0.689573824    
  -54.6465797       5.53822613      -20.0000000       156.759048     -0.194439918    
  -53.2416306       6.06926107      -20.0000000       156.759048     -0.194439918    
  -53.0954399       4.36336088      -20.0000000       156.759048     -0.194439918    
  -54.5736809       4.04919481      -20.0000000       156.759048     -0.194439918    
  -47.2643318      -1.55986798      -20.0000000       215.405975      -1.29667401    
  -48.7658615      -1.56390297      -20.0000000       215.405975      -1.29667401    
  -48.7753716      -1.42937005E-02  -20.0000000       215.405975      -1.29667401    
  -47.2657204       0.00000000      -20.0000000       215.405975      -1.29667401    
  -48.7753716      -1.42937005E-02  -20.0000000       211.807419     -0.978902876    
  -50.2816200      -7.23225027E-02  -20.0000000       211.807419     -0.978902876    
  -50.2459984       1.47492099      -20.0000000       211.807419     -0.978902876    
  -48.7560692       1.53868604      -20.0000000       211.807419     -0.978902876    
  -51.6464691       2.90894699      -20.0000000       187.067551     -0.429528236    
  -53.0367393       2.70281792      -20.0000000       187.067551     -0.429528236    
  -53.0954399       4.36336088      -20.0000000       187.067551     -0.429528236    
  -51.6648903       4.56408405      -20.0000000       187.067551     -0.429528236    
  -41.2618294      -6.25000000      -20.0000000       234.907471      -2.63982391    
  -42.7680206      -6.25000000      -20.0000000       234.907471      -2.63982391    
  -42.7620697      -4.68767691      -20.0000000       234.907471      -2.63982391    
  -41.2566490      -4.68782711      -20.0000000       234.907471      -2.63982391    
  -44.2611694      -3.12488103      -20.0000000       237.190948      -2.25613737    
  -42.7563400      -3.12513494      -20.0000000       237.190948      -2.25613737    
  -42.7620697      -4.68767691      -20.0000000       237.190948      -2.25613737    
  -44.2670212      -4.68766403      -20.0000000       237.190948      -2.25613737    
  -44.2611694      -3.12488103      -20.0000000       233.388168      -1.91950119    
  -45.7611885      -3.12411094      -20.0000000       233.388168      -1.91950119    
  -45.7603798      -1.56126106      -20.0000000       233.388168      -1.91950119    
  -44.2565308      -1.56226599      -20.0000000       233.388168      -1.91950119    
  -45.7603798      -1.56126106      -20.0000000       226.399323      -1.60115945    
  -47.2643318      -1.55986798      -20.0000000       226.399323      -1.60115945    
  -47.2657204       0.00000000      -20.0000000       226.399323      -1.60115945    
  -45.7582893       0.00000000      -20.0000000       226.399323      -1.60115945    
  -47.2657204       0.00000000      -20.0000000       215.424362      -1.29736686    
  -48.7753716      -1.42937005E-02  -20.0000000       215.424362      -1.29736686    
  -48.7560692       1.53868604      -20.0000000       215.424362      -1.29736686    
  -47.2535896       1.55706894      -20.0000000       215.424362      -1.29736686    
  -48.7560692       1.53868604      -20.0000000       198.659302      -1.00886714    
  -50.2459984       1.47492099      -20.0000000       198.659302      -1.00886714    
  -50.2011604       3.04989505      -20.0000000       198.659302      -1.00886714    
  -48.7281189       3.10503101      -20.0000000       198.659302      -1.00886714    
  -50.2011604       3.04989505      -20.0000000       173.043091     -0.730216265    
  -51.6464691       2.90894699      -20.0000000       173.043091     -0.730216265    
  -51.6648903       4.56408405      -20.0000000       173.043091     -0.730216265    
  -50.2067184       4.64797401      -20.0000000       173.043091     -0.730216265    
  -51.6648903       4.56408405      -20.0000000       127.528412     -0.456208348    
  -53.0954399       4.36336088      -20.0000000       127.528412     -0.456208348    
  -53.2416306       6.06926107      -20.0000000       127.528412     -0.456208348    
  -51.7500000       6.25000000      -20.0000000       127.528412     -0.456208348    
  -39.7556496      -6.25000000      -20.0000000       247.579498      -2.76871610    
  -41.2618294      -6.25000000      -20.0000000       247.579498      -2.76871610    
  -41.2566490      -4.68782711      -20.0000000       247.579498      -2.76871610    
  -39.7507591      -4.68851089      -20.0000000       247.579498      -2.76871610    
  -41.2566490      -4.68782711      -20.0000000       255.684525      -2.45416880    
  -42.7620697      -4.68767691      -20.0000000       255.684525      -2.45416880    
  -42.7563400      -3.12513494      -20.0000000       255.684525      -2.45416880    
  -41.2511406      -3.12541890      -20.0000000       255.684525      -2.45416880    
  -44.2565308      -1.56226599      -20.0000000       251.750839      -2.16246843    
  -42.7509499      -1.56253600      -20.0000000       251.750839      -2.16246843    
  -42.7563400      -3.12513494      -20.0000000       251.750839      -2.16246843    
  -44.2611694      -3.12488103      -20.0000000       251.750839      -2.16246843    
  -44.2565308      -1.56226599      -20.0000000       241.932236      -1.87815106    
  -45.7603798      -1.56126106      -20.0000000       241.932236      -1.87815106    
  -45.7582893       0.00000000      -20.0000000       241.932236      -1.87815106    
  -44.2515602       0.00000000      -20.0000000       241.932236      -1.87815106    
  -45.7582893       0.00000000      -20.0000000       226.386429      -1.60215676    
  -47.2657204       0.00000000      -20.0000000       226.386429      -1.60215676    
  -47.2535896       1.55706894      -20.0000000       226.386429      -1.60215676    
  -45.7509003       1.56100297      -20.0000000       226.386429      -1.60215676    
  -47.2535896       1.55706894      -20.0000000       203.132233      -1.33673429    
  -48.7560692       1.53868604      -20.0000000       203.132233      -1.33673429    
  -48.7281189       3.10503101      -20.0000000       203.132233      -1.33673429    
  -47.2370110       3.11982203      -20.0000000       203.132233      -1.33673429    
  -48.7281189       3.10503101      -20.0000000       168.363098      -1.08234107    
  -50.2011604       3.04989505      -20.0000000       168.363098      -1.08234107    
  -50.2067184       4.64797401      -20.0000000       168.363098      -1.08234107    
  -48.7241211       4.67746210      -20.0000000       168.363098      -1.08234107    
  -50.2067184       4.64797401      -20.0000000       108.971771     -0.853959799    
  -51.6648903       4.56408405      -20.0000000       108.971771     -0.853959799    
  -51.7500000       6.25000000      -20.0000000       108.971771     -0.853959799    
  -50.2455711       6.25000000      -20.0000000       108.971771     -0.853959799    
  -38.2494698      -6.25000000      -20.0000000       249.944534      -2.89261079    
  -39.7556496      -6.25000000      -20.0000000       249.944534      -2.89261079    
  -39.7507591      -4.68851089      -20.0000000       249.944534      -2.89261079    
  -38.2446404      -4.68936491      -20.0000000       249.944534      -2.89261079    
  -39.7507591      -4.68851089      -20.0000000       267.584381      -2.63415241    
  -41.2566490      -4.68782711      -20.0000000       267.584381      -2.63415241    
  -41.2511406      -3.12541890      -20.0000000       267.584381      -2.63415241    
  -39.7453995      -3.12673903      -20.0000000       267.584381      -2.63415241    
  -41.2511406      -3.12541890      -20.0000000       267.543304      -2.37931752    
  -42.7563400      -3.12513494      -20.0000000       267.543304      -2.37931752    
  -42.7509499      -1.56253600      -20.0000000       267.543304      -2.37931752    
  -41.2455711      -1.56282198      -20.0000000       267.543304      -2.37931752    
  -44.2515602       0.00000000      -20.0000000       258.531769      -2.12584043    
  -42.7457504       0.00000000      -20.0000000       258.531769      -2.12584043    
  -42.7509499      -1.56253600      -20.0000000       258.531769      -2.12584043    
  -44.2565308      -1.56226599      -20.0000000       258.531769      -2.12584043    
  -44.2515602       0.00000000      -20.0000000       241.945984      -1.87907922    
  -45.7582893       0.00000000      -20.0000000       241.945984      -1.87907922    
  -45.7509003       1.56100297      -20.0000000       241.945984      -1.87907922    
  -44.2452011       1.56199801      -20.0000000       241.945984      -1.87907922    
  -45.7509003       1.56100297      -20.0000000       215.809372      -1.64640129    
  -47.2535896       1.55706894      -20.0000000       215.809372      -1.64640129    
  -47.2370110       3.11982203      -20.0000000       215.809372      -1.64640129    
  -45.7402802       3.12332392      -20.0000000       215.809372      -1.64640129    
  -47.2370110       3.11982203      -20.0000000       175.731384      -1.44039989    
  -48.7281189       3.10503101      -20.0000000       175.731384      -1.44039989    
  -48.7241211       4.67746210      -20.0000000       175.731384      -1.44039989    
  -47.2300911       4.68496799      -20.0000000       175.731384      -1.44039989    
  -48.7241211       4.67746210      -20.0000000       108.436310      -1.34606886    
  -50.2067184       4.64797401      -20.0000000       108.436310      -1.34606886    
  -50.2455711       6.25000000      -20.0000000       108.436310      -1.34606886    
  -48.7411499       6.25000000      -20.0000000       108.436310      -1.34606886    
  -36.7432899      -6.25000000      -20.0000000       241.553436      -3.02106166    
  -38.2494698      -6.25000000      -20.0000000       241.553436      -3.02106166    
  -38.2446404      -4.68936491      -20.0000000       241.553436      -3.02106166    
  -36.7384796      -4.68897390      -20.0000000       241.553436      -3.02106166    
  -38.2446404      -4.68936491      -20.0000000       271.301788      -2.80655098    
  -39.7507591      -4.68851089      -20.0000000       271.301788      -2.80655098    
  -39.7453995      -3.12673903      -20.0000000       271.301788      -2.80655098    
  -38.2396507      -3.12933803      -20.0000000       271.301788      -2.80655098    
  -39.7453995      -3.12673903      -20.0000000       277.966553      -2.57963395    
  -41.2511406      -3.12541890      -20.0000000       277.966553      -2.57963395    
  -41.2455711      -1.56282198      -20.0000000       277.966553      -2.57963395    
  -39.7399902      -1.56351995      -20.0000000       277.966553      -2.57963395    
  -41.2455711      -1.56282198      -20.0000000       272.969910      -2.34958220    
  -42.7509499      -1.56253600      -20.0000000       272.969910      -2.34958220    
  -42.7457504       0.00000000      -20.0000000       272.969910      -2.34958220    
  -41.2401695       0.00000000      -20.0000000       272.969910      -2.34958220    
  -44.2452011       1.56199801      -20.0000000       258.545685      -2.12678814    
  -42.7402611       1.56238496      -20.0000000       258.545685      -2.12678814    
  -42.7457504       0.00000000      -20.0000000       258.545685      -2.12678814    
  -44.2515602       0.00000000      -20.0000000       258.545685      -2.12678814    
  -44.2452011       1.56199801      -20.0000000       233.325256      -1.92265558    
  -45.7509003       1.56100297      -20.0000000       233.325256      -1.92265558    
  -45.7402802       3.12332392      -20.0000000       233.325256      -1.92265558    
  -44.2380295       3.12447906      -20.0000000       233.325256      -1.92265558    
  -45.7402802       3.12332392      -20.0000000       192.962570      -1.76182759    
  -47.2370110       3.11982203      -20.0000000       192.962570      -1.76182759    
  -47.2300911       4.68496799      -20.0000000       192.962570      -1.76182759    
  -45.7329903       4.68700409      -20.0000000       192.962570      -1.76182759    
  -47.2300911       4.68496799      -20.0000000       126.288528      -1.78407204    
  -48.7241211       4.67746210      -20.0000000       126.288528      -1.78407204    
  -48.7411499       6.25000000      -20.0000000       126.288528      -1.78407204    
  -47.2367287       6.25000000      -20.0000000       126.288528      -1.78407204    
  -35.2371101      -6.25000000      -20.0000000       223.087677       3.11850095    
  -36.7432899      -6.25000000      -20.0000000       223.087677       3.11850095    
  -36.7384796      -4.68897390      -20.0000000       223.087677       3.11850095    
  -35.2325211      -4.68835878      -20.0000000       223.087677       3.11850095    
  -36.7384796      -4.68897390      -20.0000000       266.237183      -2.98190165    
  -38.2446404      -4.68936491      -20.0000000       266.237183      -2.98190165    
  -38.2396507      -3.12933803      -20.0000000       266.237183      -2.98190165    
  -36.7339096      -3.12783909      -20.0000000       266.237183      -2.98190165    
  -38.2396507      -3.12933803      -20.0000000       281.544067      -2.77238250    
  -39.7453995      -3.12673903      -20.0000000       281.544067      -2.77238250    
  -39.7399902      -1.56351995      -20.0000000       281.544067      -2.77238250    
  -38.2346497      -1.56438303      -20.0000000       281.544067      -2.77238250    
  -39.7399902      -1.56351995      -20.0000000       282.556244      -2.55802727    
  -41.2455711      -1.56282198      -20.0000000       282.556244      -2.55802727    
  -41.2401695       0.00000000      -20.0000000       282.556244      -2.55802727    