 VARIABLES="X" "Y" "Z" "abs(p) (Pa)" "angle(p) (rad)"
ZONE N=   3650,E =    3624, F=FEPOINT, ET=QUADRILATERAL
  -56.5164909      -2.47323704      -20.0000000       1738.53113       1.61842036    
  -55.4176407      -3.26747894      -20.0000000       1738.53113       1.61842036    
  -55.9264717      -4.64953518      -20.0000000       1738.53113       1.61842036    
  -56.9148483      -3.51935697      -20.0000000       1738.53113       1.61842036    
  -56.9148483      -3.51935697      -20.0000000       2073.26245       1.62124610    
  -57.6058807      -2.18402195      -20.0000000       2073.26245       1.62124610    
  -56.5164909      -2.47323704      -20.0000000       2073.26245       1.62124610    
  -56.5164909      -2.47323704      -20.0000000       2073.26245       1.62124610    
  -54.6953812      -5.51239681      -20.0000000       1437.87292       1.61396658    
  -55.9264717      -4.64953518      -20.0000000       1437.87292       1.61396658    
  -55.4176407      -3.26747894      -20.0000000       1437.87292       1.61396658    
  -54.2450790      -3.94889998      -20.0000000       1437.87292       1.61396658    
  -54.2450790      -3.94889998      -20.0000000       1149.30493       1.60996246    
  -52.9834785      -4.46340179      -20.0000000       1149.30493       1.60996246    
  -53.2955093      -6.05576801      -20.0000000       1149.30493       1.60996246    
  -54.6953812      -5.51239681      -20.0000000       1149.30493       1.60996246    
  -56.5223999      -1.11500299      -20.0000000       2013.71790       1.62373543    
  -56.5164909      -2.47323704      -20.0000000       2013.71790       1.62373543    
  -57.6058807      -2.18402195      -20.0000000       2013.71790       1.62373543    
  -57.9577713     -0.724482894      -20.0000000       2013.71790       1.62373543    
  -56.5164909      -2.47323704      -20.0000000       1497.21069       1.62214291    
  -56.5223999      -1.11500299      -20.0000000       1497.21069       1.62214291    
  -55.1657600      -1.76926601      -20.0000000       1497.21069       1.62214291    
  -55.4176407      -3.26747894      -20.0000000       1497.21069       1.62214291    
  -54.2450790      -3.94889998      -20.0000000       1224.97778       1.61861885    
  -55.4176407      -3.26747894      -20.0000000       1224.97778       1.61861885    
  -55.1657600      -1.76926601      -20.0000000       1224.97778       1.61861885    
  -53.8819199      -2.32836604      -20.0000000       1224.97778       1.61861885    
  -52.9834785      -4.46340179      -20.0000000       884.621460       1.60745108    
  -51.6155815      -4.69134283      -20.0000000       884.621460       1.60745108    
  -51.8049088      -6.24783087      -20.0000000       884.621460       1.60745108    
  -53.2955093      -6.05576801      -20.0000000       884.621460       1.60745108    
  -56.3964119      0.254809886      -20.0000000       2003.86328       1.62463045    
  -56.5223999      -1.11500299      -20.0000000       2003.86328       1.62463045    
  -57.9577713     -0.724482894      -20.0000000       2003.86328       1.62463045    
  -57.9511719      0.779103875      -20.0000000       2003.86328       1.62463045    
  -53.8819199      -2.32836604      -20.0000000       1022.33173       1.61515963    
  -52.7235603      -2.92538095      -20.0000000       1022.33173       1.61515963    
  -52.9834785      -4.46340179      -20.0000000       1022.33173       1.61515963    
  -54.2450790      -3.94889998      -20.0000000       1022.33173       1.61515963    
  -56.5223999      -1.11500299      -20.0000000       1426.86365       1.62337816    
  -56.3964119      0.254809886      -20.0000000       1426.86365       1.62337816    
  -54.8835487     -0.325594515      -20.0000000       1426.86365       1.62337816    
  -55.1657600      -1.76926601      -20.0000000       1426.86365       1.62337816    
  -50.2990494      -6.25000000      -20.0000000       680.591858       1.60656297    
  -51.8049088      -6.24783087      -20.0000000       680.591858       1.60656297    
  -51.6155815      -4.69134283      -20.0000000       680.591858       1.60656297    
  -50.1911316      -4.70199823      -20.0000000       680.591858       1.60656297    
  -53.8819199      -2.32836604      -20.0000000       1135.43225       1.62014067    
  -55.1657600      -1.76926601      -20.0000000       1135.43225       1.62014067    
  -54.8835487     -0.325594515      -20.0000000       1135.43225       1.62014067    
  -53.3087082     -0.726661325      -20.0000000       1135.43225       1.62014067    
  -52.7235603      -2.92538095      -20.0000000       848.589905       1.61235774    
  -51.4683685      -3.18431592      -20.0000000       848.589905       1.61235774    
  -51.6155815      -4.69134283      -20.0000000       848.589905       1.61235774    
  -52.9834785      -4.46340179      -20.0000000       848.589905       1.61235774    
  -56.1067696       1.60355306      -20.0000000       1947.14722       1.62361050    
  -56.3964119      0.254809886      -20.0000000       1947.14722       1.62361050    
  -57.9511719      0.779103875      -20.0000000       1947.14722       1.62361050    
  -57.5863686       2.23558092      -20.0000000       1947.14722       1.62361050    
  -56.3964119      0.254809886      -20.0000000       1375.46948       1.62288499    
  -56.1067696       1.60355306      -20.0000000       1375.46948       1.62288499    
  -54.6488190       1.11988902      -20.0000000       1375.46948       1.62288499    
  -54.8835487     -0.325594515      -20.0000000       1375.46948       1.62288499    
  -51.8859215      -1.67511594      -20.0000000       942.727905       1.61693811    
  -52.7235603      -2.92538095      -20.0000000       942.727905       1.61693811    
  -53.8819199      -2.32836604      -20.0000000       942.727905       1.61693811    
  -53.3087082     -0.726661325      -20.0000000       942.727905       1.61693811    
  -48.7928200      -6.25000000      -20.0000000       544.539734       1.60670924    
  -50.2990494      -6.25000000      -20.0000000       544.539734       1.60670924    
  -50.1911316      -4.70199823      -20.0000000       544.539734       1.60670924    
  -48.7387619      -4.69004917      -20.0000000       544.539734       1.60670924    
  -50.1911316      -4.70199823      -20.0000000       704.179993       1.61067438    
  -51.6155815      -4.69134283      -20.0000000       704.179993       1.61067438    
  -51.4683685      -3.18431592      -20.0000000       704.179993       1.61067438    
  -50.1564102      -3.12996602      -20.0000000       704.179993       1.61067438    
  -54.6488190       1.11988902      -20.0000000       1086.83679       1.62002850    
  -53.2043991       1.01675200      -20.0000000       1086.83679       1.62002850    
  -53.3087082     -0.726661325      -20.0000000       1086.83679       1.62002850    
  -54.8835487     -0.325594515      -20.0000000       1086.83679       1.62002850    
  -51.4683685      -3.18431592      -20.0000000       834.588684       1.61449790    
  -52.7235603      -2.92538095      -20.0000000       834.588684       1.61449790    
  -51.8859215      -1.67511594      -20.0000000       834.588684       1.61449790    
  -51.8859215      -1.67511594      -20.0000000       834.588684       1.61449790    
  -55.6295395       2.91055298      -20.0000000       1836.47778       1.62080896    
  -56.1067696       1.60355306      -20.0000000       1836.47778       1.62080896    
  -57.5863686       2.23558092      -20.0000000       1836.47778       1.62080896    
  -56.8836594       3.56473303      -20.0000000       1836.47778       1.62080896    
  -47.2866096      -6.25000000      -20.0000000       453.104370       1.60808706    
  -48.7928200      -6.25000000      -20.0000000       453.104370       1.60808706    
  -48.7387619      -4.69004917      -20.0000000       453.104370       1.60808706    
  -47.2626686      -4.68801212      -20.0000000       453.104370       1.60808706    
  -48.7387619      -4.69004917      -20.0000000       593.486328       1.60990024    
  -50.1911316      -4.70199823      -20.0000000       593.486328       1.60990024    
  -50.1564102      -3.12996602      -20.0000000       593.486328       1.60990024    
  -48.7254105      -3.12169194      -20.0000000       593.486328       1.60990024    
  -50.1564102      -3.12996602      -20.0000000       733.462646       1.61327231    
  -51.4683685      -3.18431592      -20.0000000       733.462646       1.61327231    
  -51.8859215      -1.67511594      -20.0000000       733.462646       1.61327231    
  -50.2854195      -1.59545600      -20.0000000       733.462646       1.61327231    
  -54.6488190       1.11988902      -20.0000000       1323.90173       1.62082505    
  -56.1067696       1.60355306      -20.0000000       1323.90173       1.62082505    
  -55.6295395       2.91055298      -20.0000000       1323.90173       1.62082505    
  -54.3531990       2.57653904      -20.0000000       1323.90173       1.62082505    
  -51.7686501     -0.191007897      -20.0000000       871.653442       1.61670494    
  -51.8859215      -1.67511594      -20.0000000       871.653442       1.61670494    
  -53.3087082     -0.726661325      -20.0000000       871.653442       1.61670494    
  -53.3087082     -0.726661325      -20.0000000       871.653442       1.61670494    
  -51.7686501     -0.191007897      -20.0000000       894.558472       1.61718440    
  -53.3087082     -0.726661325      -20.0000000       894.558472       1.61718440    
  -53.2043991       1.01675200      -20.0000000       894.558472       1.61718440    
  -51.7500000       1.29565406      -20.0000000       894.558472       1.61718440    
  -53.0367393       2.70281792      -20.0000000       1062.56946       1.61852789    
  -53.2043991       1.01675200      -20.0000000       1062.56946       1.61852789    
  -54.6488190       1.11988902      -20.0000000       1062.56946       1.61852789    
  -54.3531990       2.57653904      -20.0000000       1062.56946       1.61852789    
  -45.7804108      -6.25000000      -20.0000000       393.350800       1.61088538    
  -47.2866096      -6.25000000      -20.0000000       393.350800       1.61088538    
  -47.2626686      -4.68801212      -20.0000000       393.350800       1.61088538    
  -45.7679100      -4.68779421      -20.0000000       393.350800       1.61088538    
  -47.2626686      -4.68801212      -20.0000000       508.828705       1.60989106    
  -48.7387619      -4.69004917      -20.0000000       508.828705       1.60989106    
  -48.7254105      -3.12169194      -20.0000000       508.828705       1.60989106    
  -47.2550507      -3.12222195      -20.0000000       508.828705       1.60989106    
  -54.5736809       4.04919481      -20.0000000       1617.25720       1.61664534    
  -55.6295395       2.91055298      -20.0000000       1617.25720       1.61664534    
  -56.8836594       3.56473303      -20.0000000       1617.25720       1.61664534    
  -55.8850899       4.68635893      -20.0000000       1617.25720       1.61664534    
  -48.7254105      -3.12169194      -20.0000000       621.667419       1.61181796    
  -50.1564102      -3.12996602      -20.0000000       621.667419       1.61181796    
  -50.2854195      -1.59545600      -20.0000000       621.667419       1.61181796    
  -48.7658615      -1.56390297      -20.0000000       621.667419       1.61181796    
  -50.2854195      -1.59545600      -20.0000000       750.884888       1.61455870    
  -51.8859215      -1.67511594      -20.0000000       750.884888       1.61455870    
  -51.7686501     -0.191007897      -20.0000000       750.884888       1.61455870    
  -50.2816200      -7.23225027E-02  -20.0000000       750.884888       1.61455870    
  -55.6295395       2.91055298      -20.0000000       1277.35986       1.61811757    
  -54.5736809       4.04919481      -20.0000000       1277.35986       1.61811757    
  -54.3531990       2.57653904      -20.0000000       1277.35986       1.61811757    
  -54.3531990       2.57653904      -20.0000000       1277.35986       1.61811757    
  -51.6464691       2.90894699      -20.0000000       880.002502       1.61586452    
  -51.7500000       1.29565406      -20.0000000       880.002502       1.61586452    
  -53.2043991       1.01675200      -20.0000000       880.002502       1.61586452    
  -53.0367393       2.70281792      -20.0000000       880.002502       1.61586452    
  -44.2742119      -6.25000000      -20.0000000       358.585999       1.61462080    
  -45.7804108      -6.25000000      -20.0000000       358.585999       1.61462080    
  -45.7679100      -4.68779421      -20.0000000       358.585999       1.61462080    
  -44.2670212      -4.68766403      -20.0000000       358.585999       1.61462080    
  -45.7679100      -4.68779421      -20.0000000       447.364044       1.61077893    
  -47.2626686      -4.68801212      -20.0000000       447.364044       1.61077893    
  -47.2550507      -3.12222195      -20.0000000       447.364044       1.61077893    
  -45.7611885      -3.12411094      -20.0000000       447.364044       1.61077893    
  -51.7500000       1.29565406      -20.0000000       746.569092       1.61459243    
  -50.2459984       1.47492099      -20.0000000       746.569092       1.61459243    
  -50.2816200      -7.23225027E-02  -20.0000000       746.569092       1.61459243    
  -51.7686501     -0.191007897      -20.0000000       746.569092       1.61459243    
  -47.2550507      -3.12222195      -20.0000000       537.063049       1.61110377    
  -48.7254105      -3.12169194      -20.0000000       537.063049       1.61110377    
  -48.7658615      -1.56390297      -20.0000000       537.063049       1.61110377    
  -47.2643318      -1.55986798      -20.0000000       537.063049       1.61110377    
  -48.7658615      -1.56390297      -20.0000000       636.402161       1.61273491    
  -50.2854195      -1.59545600      -20.0000000       636.402161       1.61273491    
  -50.2816200      -7.23225027E-02  -20.0000000       636.402161       1.61273491    
  -48.7753716      -1.42937005E-02  -20.0000000       636.402161       1.61273491    
  -54.5736809       4.04919481      -20.0000000       1071.76343       1.61557019    
  -53.0954399       4.36336088      -20.0000000       1071.76343       1.61557019    
  -53.0367393       2.70281792      -20.0000000       1071.76343       1.61557019    
  -54.3531990       2.57653904      -20.0000000       1071.76343       1.61557019    
  -54.6465797       5.53822613      -20.0000000       1485.64209       1.61227036    
  -54.5736809       4.04919481      -20.0000000       1485.64209       1.61227036    
  -55.8850899       4.68635893      -20.0000000       1485.64209       1.61227036    
  -55.8850899       4.68635893      -20.0000000       1485.64209       1.61227036    
  -44.2670212      -4.68766403      -20.0000000       342.835541       1.61841345    
  -42.7620697      -4.68767691      -20.0000000       342.835541       1.61841345    
  -42.7680206      -6.25000000      -20.0000000       342.835541       1.61841345    
  -44.2742119      -6.25000000      -20.0000000       342.835541       1.61841345    
  -44.2670212      -4.68766403      -20.0000000       405.738373       1.61238730    
  -45.7679100      -4.68779421      -20.0000000       405.738373       1.61238730    
  -45.7611885      -3.12411094      -20.0000000       405.738373       1.61238730    
  -44.2611694      -3.12488103      -20.0000000       405.738373       1.61238730    
  -45.7611885      -3.12411094      -20.0000000       474.035065       1.61114979    
  -47.2550507      -3.12222195      -20.0000000       474.035065       1.61114979    
  -47.2643318      -1.55986798      -20.0000000       474.035065       1.61114979    
  -45.7603798      -1.56126106      -20.0000000       474.035065       1.61114979    
  -50.2459984       1.47492099      -20.0000000       735.133789       1.61345720    
  -51.7500000       1.29565406      -20.0000000       735.133789       1.61345720    
  -51.6464691       2.90894699      -20.0000000       735.133789       1.61345720    
  -50.2011604       3.04989505      -20.0000000       735.133789       1.61345720    
  -54.6465797       5.53822613      -20.0000000       1161.63147       1.61019802    
  -53.2416306       6.06926107      -20.0000000       1161.63147       1.61019802    
  -53.0954399       4.36336088      -20.0000000       1161.63147       1.61019802    
  -54.5736809       4.04919481      -20.0000000       1161.63147       1.61019802    
  -47.2643318      -1.55986798      -20.0000000       550.144287       1.61170864    
  -48.7658615      -1.56390297      -20.0000000       550.144287       1.61170864    
  -48.7753716      -1.42937005E-02  -20.0000000       550.144287       1.61170864    
  -47.2657204       0.00000000      -20.0000000       550.144287       1.61170864    
  -48.7753716      -1.42937005E-02  -20.0000000       635.766785       1.61273575    
  -50.2816200      -7.23225027E-02  -20.0000000       635.766785       1.61273575    
  -50.2459984       1.47492099      -20.0000000       635.766785       1.61273575    
  -48.7560692       1.53868604      -20.0000000       635.766785       1.61273575    
  -51.6464691       2.90894699      -20.0000000       868.825745       1.61299086    
  -53.0367393       2.70281792      -20.0000000       868.825745       1.61299086    
  -53.0954399       4.36336088      -20.0000000       868.825745       1.61299086    
  -51.6648903       4.56408405      -20.0000000       868.825745       1.61299086    
  -41.2618294      -6.25000000      -20.0000000       341.201416       1.62136352    
  -42.7680206      -6.25000000      -20.0000000       341.201416       1.62136352    
  -42.7620697      -4.68767691      -20.0000000       341.201416       1.62136352    
  -41.2566490      -4.68782711      -20.0000000       341.201416       1.62136352    
  -44.2611694      -3.12488103      -20.0000000       380.004242       1.61432958    
  -42.7563400      -3.12513494      -20.0000000       380.004242       1.61432958    
  -42.7620697      -4.68767691      -20.0000000       380.004242       1.61432958    
  -44.2670212      -4.68766403      -20.0000000       380.004242       1.61432958    
  -44.2611694      -3.12488103      -20.0000000       429.037689       1.61183608    
  -45.7611885      -3.12411094      -20.0000000       429.037689       1.61183608    
  -45.7603798      -1.56126106      -20.0000000       429.037689       1.61183608    
  -44.2565308      -1.56226599      -20.0000000       429.037689       1.61183608    
  -45.7603798      -1.56126106      -20.0000000       485.884979       1.61139870    
  -47.2643318      -1.55986798      -20.0000000       485.884979       1.61139870    
  -47.2657204       0.00000000      -20.0000000       485.884979       1.61139870    
  -45.7582893       0.00000000      -20.0000000       485.884979       1.61139870    
  -47.2657204       0.00000000      -20.0000000       549.833252       1.61170113    
  -48.7753716      -1.42937005E-02  -20.0000000       549.833252       1.61170113    
  -48.7560692       1.53868604      -20.0000000       549.833252       1.61170113    
  -47.2535896       1.55706894      -20.0000000       549.833252       1.61170113    
  -48.7560692       1.53868604      -20.0000000       621.987610       1.61183155    
  -50.2459984       1.47492099      -20.0000000       621.987610       1.61183155    
  -50.2011604       3.04989505      -20.0000000       621.987610       1.61183155    
  -48.7281189       3.10503101      -20.0000000       621.987610       1.61183155    
  -50.2011604       3.04989505      -20.0000000       713.670227       1.61098850    
  -51.6464691       2.90894699      -20.0000000       713.670227       1.61098850    
  -51.6648903       4.56408405      -20.0000000       713.670227       1.61098850    
  -50.2067184       4.64797401      -20.0000000       713.670227       1.61098850    
  -51.6648903       4.56408405      -20.0000000       884.901489       1.60767663    
  -53.0954399       4.36336088      -20.0000000       884.901489       1.60767663    
  -53.2416306       6.06926107      -20.0000000       884.901489       1.60767663    
  -51.7500000       6.25000000      -20.0000000       884.901489       1.60767663    
  -39.7556496      -6.25000000      -20.0000000       348.842834       1.62299359    
  -41.2618294      -6.25000000      -20.0000000       348.842834       1.62299359    
  -41.2566490      -4.68782711      -20.0000000       348.842834       1.62299359    
  -39.7507591      -4.68851089      -20.0000000       348.842834       1.62299359    
  -41.2566490      -4.68782711      -20.0000000       366.407837       1.61611676    
  -42.7620697      -4.68767691      -20.0000000       366.407837       1.61611676    
  -42.7563400      -3.12513494      -20.0000000       366.407837       1.61611676    
  -41.2511406      -3.12541890      -20.0000000       366.407837       1.61611676    
  -44.2565308      -1.56226599      -20.0000000       398.573242       1.61290896    
  -42.7509499      -1.56253600      -20.0000000       398.573242       1.61290896    
  -42.7563400      -3.12513494      -20.0000000       398.573242       1.61290896    
  -44.2611694      -3.12488103      -20.0000000       398.573242       1.61290896    
  -44.2565308      -1.56226599      -20.0000000       439.272095       1.61170065    
  -45.7603798      -1.56126106      -20.0000000       439.272095       1.61170065    
  -45.7582893       0.00000000      -20.0000000       439.272095       1.61170065    
  -44.2515602       0.00000000      -20.0000000       439.272095       1.61170065    
  -45.7582893       0.00000000      -20.0000000       485.617401       1.61139596    
  -47.2657204       0.00000000      -20.0000000       485.617401       1.61139596    
  -47.2535896       1.55706894      -20.0000000       485.617401       1.61139596    
  -45.7509003       1.56100297      -20.0000000       485.617401       1.61139596    
  -47.2535896       1.55706894      -20.0000000       536.439941       1.61108637    
  -48.7560692       1.53868604      -20.0000000       536.439941       1.61108637    
  -48.7281189       3.10503101      -20.0000000       536.439941       1.61108637    
  -47.2370110       3.11982203      -20.0000000       536.439941       1.61108637    
  -48.7281189       3.10503101      -20.0000000       594.919922       1.60992098    
  -50.2011604       3.04989505      -20.0000000       594.919922       1.60992098    
  -50.2067184       4.64797401      -20.0000000       594.919922       1.60992098    
  -48.7241211       4.67746210      -20.0000000       594.919922       1.60992098    
  -50.2067184       4.64797401      -20.0000000       680.735535       1.60664773    
  -51.6648903       4.56408405      -20.0000000       680.735535       1.60664773    
  -51.7500000       6.25000000      -20.0000000       680.735535       1.60664773    
  -50.2455711       6.25000000      -20.0000000       680.735535       1.60664773    
  -38.2494698      -6.25000000      -20.0000000       361.439392       1.62327731    
  -39.7556496      -6.25000000      -20.0000000       361.439392       1.62327731    
  -39.7507591      -4.68851089      -20.0000000       361.439392       1.62327731    
  -38.2446404      -4.68936491      -20.0000000       361.439392       1.62327731    
  -39.7507591      -4.68851089      -20.0000000       361.230377       1.61738670    
  -41.2566490      -4.68782711      -20.0000000       361.230377       1.61738670    
  -41.2511406      -3.12541890      -20.0000000       361.230377       1.61738670    
  -39.7453995      -3.12673903      -20.0000000       361.230377       1.61738670    
  -41.2511406      -3.12541890      -20.0000000       379.399841       1.61403680    
  -42.7563400      -3.12513494      -20.0000000       379.399841       1.61403680    
  -42.7509499      -1.56253600      -20.0000000       379.399841       1.61403680    
  -41.2455711      -1.56282198      -20.0000000       379.399841       1.61403680    
  -44.2515602       0.00000000      -20.0000000       406.784729       1.61239731    
  -42.7457504       0.00000000      -20.0000000       406.784729       1.61239731    
  -42.7509499      -1.56253600      -20.0000000       406.784729       1.61239731    
  -44.2565308      -1.56226599      -20.0000000       406.784729       1.61239731    
  -44.2515602       0.00000000      -20.0000000       439.090240       1.61169827    
  -45.7582893       0.00000000      -20.0000000       439.090240       1.61169827    
  -45.7509003       1.56100297      -20.0000000       439.090240       1.61169827    
  -44.2452011       1.56199801      -20.0000000       439.090240       1.61169827    
  -45.7509003       1.56100297      -20.0000000       473.219482       1.61115026    
  -47.2535896       1.55706894      -20.0000000       473.219482       1.61115026    
  -47.2370110       3.11982203      -20.0000000       473.219482       1.61115026    
  -45.7402802       3.12332392      -20.0000000       473.219482       1.61115026    
  -47.2370110       3.11982203      -20.0000000       507.785095       1.60987163    
  -48.7281189       3.10503101      -20.0000000       507.785095       1.60987163    
  -48.7241211       4.67746210      -20.0000000       507.785095       1.60987163    
  -47.2300911       4.68496799      -20.0000000       507.785095       1.60987163    
  -48.7241211       4.67746210      -20.0000000       542.996033       1.60669732    
  -50.2067184       4.64797401      -20.0000000       542.996033       1.60669732    
  -50.2455711       6.25000000      -20.0000000       542.996033       1.60669732    
  -48.7411499       6.25000000      -20.0000000       542.996033       1.60669732    
  -36.7432899      -6.25000000      -20.0000000       375.167572       1.62242997    
  -38.2494698      -6.25000000      -20.0000000       375.167572       1.62242997    
  -38.2446404      -4.68936491      -20.0000000       375.167572       1.62242997    
  -36.7384796      -4.68897390      -20.0000000       375.167572       1.62242997    
  -38.2446404      -4.68936491      -20.0000000       361.449402       1.61792266    
  -39.7507591      -4.68851089      -20.0000000       361.449402       1.61792266    
  -39.7453995      -3.12673903      -20.0000000       361.449402       1.61792266    
  -38.2396507      -3.12933803      -20.0000000       361.449402       1.61792266    
  -39.7453995      -3.12673903      -20.0000000       368.265442       1.61492693    
  -41.2511406      -3.12541890      -20.0000000       368.265442       1.61492693    
  -41.2455711      -1.56282198      -20.0000000       368.265442       1.61492693    
  -39.7399902      -1.56351995      -20.0000000       368.265442       1.61492693    
  -41.2455711      -1.56282198      -20.0000000       385.291718       1.61321592    
  -42.7509499      -1.56253600      -20.0000000       385.291718       1.61321592    
  -42.7457504       0.00000000      -20.0000000       385.291718       1.61321592    
  -41.2401695       0.00000000      -20.0000000       385.291718       1.61321592    
  -44.2452011       1.56199801      -20.0000000       406.656647       1.61239791    
  -42.7402611       1.56238496      -20.0000000       406.656647       1.61239791    
  -42.7457504       0.00000000      -20.0000000       406.656647       1.61239791    
  -44.2515602       0.00000000      -20.0000000       406.656647       1.61239791    
  -44.2452011       1.56199801      -20.0000000       428.310181       1.61185539    
  -45.7509003       1.56100297      -20.0000000       428.310181       1.61185539    
  -45.7402802       3.12332392      -20.0000000       428.310181       1.61185539    
  -44.2380295       3.12447906      -20.0000000       428.310181       1.61185539    
  -45.7402802       3.12332392      -20.0000000       446.174072       1.61077952    
  -47.2370110       3.11982203      -20.0000000       446.174072       1.61077952    
  -47.2300911       4.68496799      -20.0000000       446.174072       1.61077952    
  -45.7329903       4.68700409      -20.0000000       446.174072       1.61077952    
  -47.2300911       4.68496799      -20.0000000       451.022217       1.60810053    
  -48.7241211       4.67746210      -20.0000000       451.022217       1.60810053    
  -48.7411499       6.25000000      -20.0000000       451.022217       1.60810053    
  -47.2367287       6.25000000      -20.0000000       451.022217       1.60810053    
  -35.2371101      -6.25000000      -20.0000000       387.074127       1.62071180    
  -36.7432899      -6.25000000      -20.0000000       387.074127       1.62071180    
  -36.7384796      -4.68897390      -20.0000000       387.074127       1.62071180    
  -35.2325211      -4.68835878      -20.0000000       387.074127       1.62071180    
  -36.7384796      -4.68897390      -20.0000000       364.146484       1.61769950    
  -38.2446404      -4.68936491      -20.0000000       364.146484       1.61769950    
  -38.2396507      -3.12933803      -20.0000000       364.146484       1.61769950    
  -36.7339096      -3.12783909      -20.0000000       364.146484       1.61769950    
  -38.2396507      -3.12933803      -20.0000000       362.798523       1.61535060    
  -39.7453995      -3.12673903      -20.0000000       362.798523       1.61535060    
  -39.7399902      -1.56351995      -20.0000000       362.798523       1.61535060    
  -38.2346497      -1.56438303      -20.0000000       362.798523       1.61535060    
  -39.7399902      -1.56351995      -20.0000000       371.643005       1.61390746    
  -41.2455711      -1.56282198      -20.0000000       371.643005       1.61390746    
  -41.2401695       0.00000000      -20.0000000       371.643005       1.61390746    