 VARIABLES="X" "Y" "Z" "abs(p) (Pa)" "angle(p) (rad)"
ZONE N=   3650,E =    3624, F=FEPOINT, ET=QUADRILATERAL
  -56.5164909      -2.47323704      -20.0000000       1208.76038       1.63903368    
  -55.4176407      -3.26747894      -20.0000000       1208.76038       1.63903368    
  -55.9264717      -4.64953518      -20.0000000       1208.76038       1.63903368    
  -56.9148483      -3.51935697      -20.0000000       1208.76038       1.63903368    
  -56.9148483      -3.51935697      -20.0000000       987.527161       1.64048910    
  -57.6058807      -2.18402195      -20.0000000       987.527161       1.64048910    
  -56.5164909      -2.47323704      -20.0000000       987.527161       1.64048910    
  -56.5164909      -2.47323704      -20.0000000       987.527161       1.64048910    
  -54.6953812      -5.51239681      -20.0000000       1508.13086       1.63639045    
  -55.9264717      -4.64953518      -20.0000000       1508.13086       1.63639045    
  -55.4176407      -3.26747894      -20.0000000       1508.13086       1.63639045    
  -54.2450790      -3.94889998      -20.0000000       1508.13086       1.63639045    
  -54.2450790      -3.94889998      -20.0000000       1771.74927       1.63379335    
  -52.9834785      -4.46340179      -20.0000000       1771.74927       1.63379335    
  -53.2955093      -6.05576801      -20.0000000       1771.74927       1.63379335    
  -54.6953812      -5.51239681      -20.0000000       1771.74927       1.63379335    
  -56.5223999      -1.11500299      -20.0000000       534.824463       1.64223516    
  -56.5164909      -2.47323704      -20.0000000       534.824463       1.64223516    
  -57.6058807      -2.18402195      -20.0000000       534.824463       1.64223516    
  -57.9577713     -0.724482894      -20.0000000       534.824463       1.64223516    
  -56.5164909      -2.47323704      -20.0000000       631.728027       1.64171004    
  -56.5223999      -1.11500299      -20.0000000       631.728027       1.64171004    
  -55.1657600      -1.76926601      -20.0000000       631.728027       1.64171004    
  -55.4176407      -3.26747894      -20.0000000       631.728027       1.64171004    
  -54.2450790      -3.94889998      -20.0000000       813.358704       1.63911402    
  -55.4176407      -3.26747894      -20.0000000       813.358704       1.63911402    
  -55.1657600      -1.76926601      -20.0000000       813.358704       1.63911402    
  -53.8819199      -2.32836604      -20.0000000       813.358704       1.63911402    
  -52.9834785      -4.46340179      -20.0000000       1970.91504       1.63140190    
  -51.6155815      -4.69134283      -20.0000000       1970.91504       1.63140190    
  -51.8049088      -6.24783087      -20.0000000       1970.91504       1.63140190    
  -53.2955093      -6.05576801      -20.0000000       1970.91504       1.63140190    
  -56.3964119      0.254809886      -20.0000000       56.2882576       1.64560103    
  -56.5223999      -1.11500299      -20.0000000       56.2882576       1.64560103    
  -57.9577713     -0.724482894      -20.0000000       56.2882576       1.64560103    
  -57.9511719      0.779103875      -20.0000000       56.2882576       1.64560103    
  -53.8819199      -2.32836604      -20.0000000       997.704224       1.63652837    
  -52.7235603      -2.92538095      -20.0000000       997.704224       1.63652837    
  -52.9834785      -4.46340179      -20.0000000       997.704224       1.63652837    
  -54.2450790      -3.94889998      -20.0000000       997.704224       1.63652837    
  -56.5223999      -1.11500299      -20.0000000       204.692581       1.64222789    
  -56.3964119      0.254809886      -20.0000000       204.692581       1.64222789    
  -54.8835487     -0.325594515      -20.0000000       204.692581       1.64222789    
  -55.1657600      -1.76926601      -20.0000000       204.692581       1.64222789    
  -50.2990494      -6.25000000      -20.0000000       2083.74316       1.62930989    
  -51.8049088      -6.24783087      -20.0000000       2083.74316       1.62930989    
  -51.6155815      -4.69134283      -20.0000000       2083.74316       1.62930989    
  -50.1911316      -4.70199823      -20.0000000       2083.74316       1.62930989    
  -53.8819199      -2.32836604      -20.0000000       344.363464       1.63921547    
  -55.1657600      -1.76926601      -20.0000000       344.363464       1.63921547    
  -54.8835487     -0.325594515      -20.0000000       344.363464       1.63921547    
  -53.3087082     -0.726661325      -20.0000000       344.363464       1.63921547    
  -52.7235603      -2.92538095      -20.0000000       1147.16809       1.63406658    
  -51.4683685      -3.18431592      -20.0000000       1147.16809       1.63406658    
  -51.6155815      -4.69134283      -20.0000000       1147.16809       1.63406658    
  -52.9834785      -4.46340179      -20.0000000       1147.16809       1.63406658    
  -56.1067696       1.60355306      -20.0000000       408.365753      -1.50031269    
  -56.3964119      0.254809886      -20.0000000       408.365753      -1.50031269    
  -57.9511719      0.779103875      -20.0000000       408.365753      -1.50031269    
  -57.5863686       2.23558092      -20.0000000       408.365753      -1.50031269    
  -56.3964119      0.254809886      -20.0000000       182.869675      -1.50036192    
  -56.1067696       1.60355306      -20.0000000       182.869675      -1.50036192    
  -54.6488190       1.11988902      -20.0000000       182.869675      -1.50036192    
  -54.8835487     -0.325594515      -20.0000000       182.869675      -1.50036192    
  -51.8859215      -1.67511594      -20.0000000       509.121338       1.63638580    
  -52.7235603      -2.92538095      -20.0000000       509.121338       1.63638580    
  -53.8819199      -2.32836604      -20.0000000       509.121338       1.63638580    
  -53.3087082     -0.726661325      -20.0000000       509.121338       1.63638580    
  -48.7928200      -6.25000000      -20.0000000       2145.02612       1.62750351    
  -50.2990494      -6.25000000      -20.0000000       2145.02612       1.62750351    
  -50.1911316      -4.70199823      -20.0000000       2145.02612       1.62750351    
  -48.7387619      -4.69004917      -20.0000000       2145.02612       1.62750351    
  -50.1911316      -4.70199823      -20.0000000       1212.39539       1.63186622    
  -51.6155815      -4.69134283      -20.0000000       1212.39539       1.63186622    
  -51.4683685      -3.18431592      -20.0000000       1212.39539       1.63186622    
  -50.1564102      -3.12996602      -20.0000000       1212.39539       1.63186622    
  -54.6488190       1.11988902      -20.0000000       65.2862167      -1.50374591    
  -53.2043991       1.01675200      -20.0000000       65.2862167      -1.50374591    
  -53.3087082     -0.726661325      -20.0000000       65.2862167      -1.50374591    
  -54.8835487     -0.325594515      -20.0000000       65.2862167      -1.50374591    
  -51.4683685      -3.18431592      -20.0000000       724.899963       1.63454103    
  -52.7235603      -2.92538095      -20.0000000       724.899963       1.63454103    
  -51.8859215      -1.67511594      -20.0000000       724.899963       1.63454103    
  -51.8859215      -1.67511594      -20.0000000       724.899963       1.63454103    
  -55.6295395       2.91055298      -20.0000000       865.631165      -1.50150907    
  -56.1067696       1.60355306      -20.0000000       865.631165      -1.50150907    
  -57.5863686       2.23558092      -20.0000000       865.631165      -1.50150907    
  -56.8836594       3.56473303      -20.0000000       865.631165      -1.50150907    
  -47.2866096      -6.25000000      -20.0000000       2191.16846       1.62578118    
  -48.7928200      -6.25000000      -20.0000000       2191.16846       1.62578118    
  -48.7387619      -4.69004917      -20.0000000       2191.16846       1.62578118    
  -47.2626686      -4.68801212      -20.0000000       2191.16846       1.62578118    
  -48.7387619      -4.69004917      -20.0000000       1231.92163       1.62984240    
  -50.1911316      -4.70199823      -20.0000000       1231.92163       1.62984240    
  -50.1564102      -3.12996602      -20.0000000       1231.92163       1.62984240    
  -48.7254105      -3.12169194      -20.0000000       1231.92163       1.62984240    
  -50.1564102      -3.12996602      -20.0000000       666.557251       1.63271499    
  -51.4683685      -3.18431592      -20.0000000       666.557251       1.63271499    
  -51.8859215      -1.67511594      -20.0000000       666.557251       1.63271499    
  -50.2854195      -1.59545600      -20.0000000       666.557251       1.63271499    
  -54.6488190       1.11988902      -20.0000000       576.915771      -1.50119925    
  -56.1067696       1.60355306      -20.0000000       576.915771      -1.50119925    
  -55.6295395       2.91055298      -20.0000000       576.915771      -1.50119925    
  -54.3531990       2.57653904      -20.0000000       576.915771      -1.50119925    
  -51.7686501     -0.191007897      -20.0000000       231.411926       1.63574696    
  -51.8859215      -1.67511594      -20.0000000       231.411926       1.63574696    
  -53.3087082     -0.726661325      -20.0000000       231.411926       1.63574696    
  -53.3087082     -0.726661325      -20.0000000       231.411926       1.63574696    
  -51.7686501     -0.191007897      -20.0000000       86.5239716      -1.50598574    
  -53.3087082     -0.726661325      -20.0000000       86.5239716      -1.50598574    
  -53.2043991       1.01675200      -20.0000000       86.5239716      -1.50598574    
  -51.7500000       1.29565406      -20.0000000       86.5239716      -1.50598574    
  -53.0367393       2.70281792      -20.0000000       497.881073      -1.50353575    
  -53.2043991       1.01675200      -20.0000000       497.881073      -1.50353575    
  -54.6488190       1.11988902      -20.0000000       497.881073      -1.50353575    
  -54.3531990       2.57653904      -20.0000000       497.881073      -1.50353575    
  -45.7804108      -6.25000000      -20.0000000       2223.55933       1.62391758    
  -47.2866096      -6.25000000      -20.0000000       2223.55933       1.62391758    
  -47.2626686      -4.68801212      -20.0000000       2223.55933       1.62391758    
  -45.7679100      -4.68779421      -20.0000000       2223.55933       1.62391758    
  -47.2626686      -4.68801212      -20.0000000       1257.91736       1.62779105    
  -48.7387619      -4.69004917      -20.0000000       1257.91736       1.62779105    
  -48.7254105      -3.12169194      -20.0000000       1257.91736       1.62779105    
  -47.2550507      -3.12222195      -20.0000000       1257.91736       1.62779105    
  -54.5736809       4.04919481      -20.0000000       1298.34436      -1.50340319    
  -55.6295395       2.91055298      -20.0000000       1298.34436      -1.50340319    
  -56.8836594       3.56473303      -20.0000000       1298.34436      -1.50340319    
  -55.8850899       4.68635893      -20.0000000       1298.34436      -1.50340319    
  -48.7254105      -3.12169194      -20.0000000       674.447388       1.63041806    
  -50.1564102      -3.12996602      -20.0000000       674.447388       1.63041806    
  -50.2854195      -1.59545600      -20.0000000       674.447388       1.63041806    
  -48.7658615      -1.56390297      -20.0000000       674.447388       1.63041806    
  -50.2854195      -1.59545600      -20.0000000       240.572861       1.63334906    
  -51.8859215      -1.67511594      -20.0000000       240.572861       1.63334906    
  -51.7686501     -0.191007897      -20.0000000       240.572861       1.63334906    
  -50.2816200      -7.23225027E-02  -20.0000000       240.572861       1.63334906    
  -55.6295395       2.91055298      -20.0000000       937.588623      -1.50224280    
  -54.5736809       4.04919481      -20.0000000       937.588623      -1.50224280    
  -54.3531990       2.57653904      -20.0000000       937.588623      -1.50224280    
  -54.3531990       2.57653904      -20.0000000       937.588623      -1.50224280    
  -51.6464691       2.90894699      -20.0000000       536.500000      -1.50601876    
  -51.7500000       1.29565406      -20.0000000       536.500000      -1.50601876    
  -53.2043991       1.01675200      -20.0000000       536.500000      -1.50601876    
  -53.0367393       2.70281792      -20.0000000       536.500000      -1.50601876    
  -44.2742119      -6.25000000      -20.0000000       2244.63037       1.62173665    
  -45.7804108      -6.25000000      -20.0000000       2244.63037       1.62173665    
  -45.7679100      -4.68779421      -20.0000000       2244.63037       1.62173665    
  -44.2670212      -4.68766403      -20.0000000       2244.63037       1.62173665    
  -45.7679100      -4.68779421      -20.0000000       1280.58093       1.62564218    
  -47.2626686      -4.68801212      -20.0000000       1280.58093       1.62564218    
  -47.2550507      -3.12222195      -20.0000000       1280.58093       1.62564218    
  -45.7611885      -3.12411094      -20.0000000       1280.58093       1.62564218    
  -51.7500000       1.29565406      -20.0000000       168.192841      -1.50781906    
  -50.2459984       1.47492099      -20.0000000       168.192841      -1.50781906    
  -50.2816200      -7.23225027E-02  -20.0000000       168.192841      -1.50781906    
  -51.7686501     -0.191007897      -20.0000000       168.192841      -1.50781906    
  -47.2550507      -3.12222195      -20.0000000       688.094788       1.62814820    
  -48.7254105      -3.12169194      -20.0000000       688.094788       1.62814820    
  -48.7658615      -1.56390297      -20.0000000       688.094788       1.62814820    
  -47.2643318      -1.55986798      -20.0000000       688.094788       1.62814820    
  -48.7658615      -1.56390297      -20.0000000       223.886719       1.63064969    
  -50.2854195      -1.59545600      -20.0000000       223.886719       1.63064969    
  -50.2816200      -7.23225027E-02  -20.0000000       223.886719       1.63064969    
  -48.7753716      -1.42937005E-02  -20.0000000       223.886719       1.63064969    
  -54.5736809       4.04919481      -20.0000000       1002.82428      -1.50438631    
  -53.0954399       4.36336088      -20.0000000       1002.82428      -1.50438631    
  -53.0367393       2.70281792      -20.0000000       1002.82428      -1.50438631    
  -54.3531990       2.57653904      -20.0000000       1002.82428      -1.50438631    
  -54.6465797       5.53822613      -20.0000000       1739.00732      -1.50586021    
  -54.5736809       4.04919481      -20.0000000       1739.00732      -1.50586021    
  -55.8850899       4.68635893      -20.0000000       1739.00732      -1.50586021    
  -55.8850899       4.68635893      -20.0000000       1739.00732      -1.50586021    
  -44.2670212      -4.68766403      -20.0000000       2257.99951       1.61918998    
  -42.7620697      -4.68767691      -20.0000000       2257.99951       1.61918998    
  -42.7680206      -6.25000000      -20.0000000       2257.99951       1.61918998    
  -44.2742119      -6.25000000      -20.0000000       2257.99951       1.61918998    
  -44.2670212      -4.68766403      -20.0000000       1297.58203       1.62324226    
  -45.7679100      -4.68779421      -20.0000000       1297.58203       1.62324226    
  -45.7611885      -3.12411094      -20.0000000       1297.58203       1.62324226    
  -44.2611694      -3.12488103      -20.0000000       1297.58203       1.62324226    
  -45.7611885      -3.12411094      -20.0000000       701.763123       1.62587965    
  -47.2550507      -3.12222195      -20.0000000       701.763123       1.62587965    
  -47.2643318      -1.55986798      -20.0000000       701.763123       1.62587965    
  -45.7603798      -1.56126106      -20.0000000       701.763123       1.62587965    
  -50.2459984       1.47492099      -20.0000000       606.706299      -1.50855637    
  -51.7500000       1.29565406      -20.0000000       606.706299      -1.50855637    
  -51.6464691       2.90894699      -20.0000000       606.706299      -1.50855637    
  -50.2011604       3.04989505      -20.0000000       606.706299      -1.50855637    
  -54.6465797       5.53822613      -20.0000000       1760.45447      -1.50738788    
  -53.2416306       6.06926107      -20.0000000       1760.45447      -1.50738788    
  -53.0954399       4.36336088      -20.0000000       1760.45447      -1.50738788    
  -54.5736809       4.04919481      -20.0000000       1760.45447      -1.50738788    
  -47.2643318      -1.55986798      -20.0000000       221.065613       1.62824953    
  -48.7658615      -1.56390297      -20.0000000       221.065613       1.62824953    
  -48.7753716      -1.42937005E-02  -20.0000000       221.065613       1.62824953    
  -47.2657204       0.00000000      -20.0000000       221.065613       1.62824953    
  -48.7753716      -1.42937005E-02  -20.0000000       200.901962      -1.51026797    
  -50.2816200      -7.23225027E-02  -20.0000000       200.901962      -1.51026797    
  -50.2459984       1.47492099      -20.0000000       200.901962      -1.51026797    
  -48.7560692       1.53868604      -20.0000000       200.901962      -1.51026797    
  -51.6464691       2.90894699      -20.0000000       1072.53735      -1.50693512    
  -53.0367393       2.70281792      -20.0000000       1072.53735      -1.50693512    
  -53.0954399       4.36336088      -20.0000000       1072.53735      -1.50693512    
  -51.6648903       4.56408405      -20.0000000       1072.53735      -1.50693512    
  -41.2618294      -6.25000000      -20.0000000       2267.95752       1.61627090    
  -42.7680206      -6.25000000      -20.0000000       2267.95752       1.61627090    
  -42.7620697      -4.68767691      -20.0000000       2267.95752       1.61627090    
  -41.2566490      -4.68782711      -20.0000000       2267.95752       1.61627090    
  -44.2611694      -3.12488103      -20.0000000       1309.79749       1.62053609    
  -42.7563400      -3.12513494      -20.0000000       1309.79749       1.62053609    
  -42.7620697      -4.68767691      -20.0000000       1309.79749       1.62053609    
  -44.2670212      -4.68766403      -20.0000000       1309.79749       1.62053609    
  -44.2611694      -3.12488103      -20.0000000       712.686218       1.62337220    
  -45.7611885      -3.12411094      -20.0000000       712.686218       1.62337220    
  -45.7603798      -1.56126106      -20.0000000       712.686218       1.62337220    
  -44.2565308      -1.56226599      -20.0000000       712.686218       1.62337220    
  -45.7603798      -1.56126106      -20.0000000       224.376221       1.62584388    
  -47.2643318      -1.55986798      -20.0000000       224.376221       1.62584388    
  -47.2657204       0.00000000      -20.0000000       224.376221       1.62584388    
  -45.7582893       0.00000000      -20.0000000       224.376221       1.62584388    
  -47.2657204       0.00000000      -20.0000000       216.734283      -1.51259732    
  -48.7753716      -1.42937005E-02  -20.0000000       216.734283      -1.51259732    
  -48.7560692       1.53868604      -20.0000000       216.734283      -1.51259732    
  -47.2535896       1.55706894      -20.0000000       216.734283      -1.51259732    
  -48.7560692       1.53868604      -20.0000000       656.915710      -1.51093125    
  -50.2459984       1.47492099      -20.0000000       656.915710      -1.51093125    
  -50.2011604       3.04989505      -20.0000000       656.915710      -1.51093125    
  -48.7281189       3.10503101      -20.0000000       656.915710      -1.51093125    
  -50.2011604       3.04989505      -20.0000000       1153.21936      -1.50938749    
  -51.6464691       2.90894699      -20.0000000       1153.21936      -1.50938749    
  -51.6648903       4.56408405      -20.0000000       1153.21936      -1.50938749    
  -50.2067184       4.64797401      -20.0000000       1153.21936      -1.50938749    
  -51.6648903       4.56408405      -20.0000000       1930.21399      -1.50999880    
  -53.0954399       4.36336088      -20.0000000       1930.21399      -1.50999880    
  -53.2416306       6.06926107      -20.0000000       1930.21399      -1.50999880    
  -51.7500000       6.25000000      -20.0000000       1930.21399      -1.50999880    
  -39.7556496      -6.25000000      -20.0000000       2277.20068       1.61303234    
  -41.2618294      -6.25000000      -20.0000000       2277.20068       1.61303234    
  -41.2566490      -4.68782711      -20.0000000       2277.20068       1.61303234    
  -39.7507591      -4.68851089      -20.0000000       2277.20068       1.61303234    
  -41.2566490      -4.68782711      -20.0000000       1319.20593       1.61751783    
  -42.7620697      -4.68767691      -20.0000000       1319.20593       1.61751783    
  -42.7563400      -3.12513494      -20.0000000       1319.20593       1.61751783    
  -41.2511406      -3.12541890      -20.0000000       1319.20593       1.61751783    
  -44.2565308      -1.56226599      -20.0000000       720.738831       1.62060809    
  -42.7509499      -1.56253600      -20.0000000       720.738831       1.62060809    
  -42.7563400      -3.12513494      -20.0000000       720.738831       1.62060809    
  -44.2611694      -3.12488103      -20.0000000       720.738831       1.62060809    
  -44.2565308      -1.56226599      -20.0000000       228.148224       1.62329054    
  -45.7603798      -1.56126106      -20.0000000       228.148224       1.62329054    
  -45.7582893       0.00000000      -20.0000000       228.148224       1.62329054    
  -44.2515602       0.00000000      -20.0000000       228.148224       1.62329054    
  -45.7582893       0.00000000      -20.0000000       222.956406      -1.51492763    
  -47.2657204       0.00000000      -20.0000000       222.956406      -1.51492763    
  -47.2535896       1.55706894      -20.0000000       222.956406      -1.51492763    
  -45.7509003       1.56100297      -20.0000000       222.956406      -1.51492763    
  -47.2535896       1.55706894      -20.0000000       684.071777      -1.51319528    
  -48.7560692       1.53868604      -20.0000000       684.071777      -1.51319528    
  -48.7281189       3.10503101      -20.0000000       684.071777      -1.51319528    
  -47.2370110       3.11982203      -20.0000000       684.071777      -1.51319528    
  -48.7281189       3.10503101      -20.0000000       1214.64392      -1.51160264    
  -50.2011604       3.04989505      -20.0000000       1214.64392      -1.51160264    
  -50.2067184       4.64797401      -20.0000000       1214.64392      -1.51160264    
  -48.7241211       4.67746210      -20.0000000       1214.64392      -1.51160264    
  -50.2067184       4.64797401      -20.0000000       2050.89941      -1.51220393    
  -51.6648903       4.56408405      -20.0000000       2050.89941      -1.51220393    
  -51.7500000       6.25000000      -20.0000000       2050.89941      -1.51220393    
  -50.2455711       6.25000000      -20.0000000       2050.89941      -1.51220393    
  -38.2494698      -6.25000000      -20.0000000       2287.98853       1.60955441    
  -39.7556496      -6.25000000      -20.0000000       2287.98853       1.60955441    
  -39.7507591      -4.68851089      -20.0000000       2287.98853       1.60955441    
  -38.2446404      -4.68936491      -20.0000000       2287.98853       1.60955441    
  -39.7507591      -4.68851089      -20.0000000       1327.82056       1.61421669    
  -41.2566490      -4.68782711      -20.0000000       1327.82056       1.61421669    
  -41.2511406      -3.12541890      -20.0000000       1327.82056       1.61421669    
  -39.7453995      -3.12673903      -20.0000000       1327.82056       1.61421669    
  -41.2511406      -3.12541890      -20.0000000       727.184814       1.61755264    
  -42.7563400      -3.12513494      -20.0000000       727.184814       1.61755264    
  -42.7509499      -1.56253600      -20.0000000       727.184814       1.61755264    
  -41.2455711      -1.56282198      -20.0000000       727.184814       1.61755264    
  -44.2515602       0.00000000      -20.0000000       230.999420       1.62049699    
  -42.7457504       0.00000000      -20.0000000       230.999420       1.62049699    
  -42.7509499      -1.56253600      -20.0000000       230.999420       1.62049699    
  -44.2565308      -1.56226599      -20.0000000       230.999420       1.62049699    
  -44.2515602       0.00000000      -20.0000000       226.423111      -1.51744449    
  -45.7582893       0.00000000      -20.0000000       226.423111      -1.51744449    
  -45.7509003       1.56100297      -20.0000000       226.423111      -1.51744449    
  -44.2452011       1.56199801      -20.0000000       226.423111      -1.51744449    
  -45.7509003       1.56100297      -20.0000000       699.913330      -1.51548493    
  -47.2535896       1.55706894      -20.0000000       699.913330      -1.51548493    
  -47.2370110       3.11982203      -20.0000000       699.913330      -1.51548493    
  -45.7402802       3.12332392      -20.0000000       699.913330      -1.51548493    
  -47.2370110       3.11982203      -20.0000000       1253.80298      -1.51368177    
  -48.7281189       3.10503101      -20.0000000       1253.80298      -1.51368177    
  -48.7241211       4.67746210      -20.0000000       1253.80298      -1.51368177    
  -47.2300911       4.68496799      -20.0000000       1253.80298      -1.51368177    
  -48.7241211       4.67746210      -20.0000000       2132.81543      -1.51406145    
  -50.2067184       4.64797401      -20.0000000       2132.81543      -1.51406145    
  -50.2455711       6.25000000      -20.0000000       2132.81543      -1.51406145    
  -48.7411499       6.25000000      -20.0000000       2132.81543      -1.51406145    
  -36.7432899      -6.25000000      -20.0000000       2300.75952       1.60595763    
  -38.2494698      -6.25000000      -20.0000000       2300.75952       1.60595763    
  -38.2446404      -4.68936491      -20.0000000       2300.75952       1.60595763    
  -36.7384796      -4.68897390      -20.0000000       2300.75952       1.60595763    
  -38.2446404      -4.68936491      -20.0000000       1336.98560       1.61070061    
  -39.7507591      -4.68851089      -20.0000000       1336.98560       1.61070061    
  -39.7453995      -3.12673903      -20.0000000       1336.98560       1.61070061    
  -38.2396507      -3.12933803      -20.0000000       1336.98560       1.61070061    
  -39.7453995      -3.12673903      -20.0000000       732.889587       1.61425757    
  -41.2511406      -3.12541890      -20.0000000       732.889587       1.61425757    
  -41.2455711      -1.56282198      -20.0000000       732.889587       1.61425757    
  -39.7399902      -1.56351995      -20.0000000       732.889587       1.61425757    
  -41.2455711      -1.56282198      -20.0000000       233.246521       1.61745608    
  -42.7509499      -1.56253600      -20.0000000       233.246521       1.61745608    
  -42.7457504       0.00000000      -20.0000000       233.246521       1.61745608    
  -41.2401695       0.00000000      -20.0000000       233.246521       1.61745608    
  -44.2452011       1.56199801      -20.0000000       228.533218      -1.52019906    
  -42.7402611       1.56238496      -20.0000000       228.533218      -1.52019906    
  -42.7457504       0.00000000      -20.0000000       228.533218      -1.52019906    
  -44.2515602       0.00000000      -20.0000000       228.533218      -1.52019906    
  -44.2452011       1.56199801      -20.0000000       710.275757      -1.51795948    
  -45.7509003       1.56100297      -20.0000000       710.275757      -1.51795948    
  -45.7402802       3.12332392      -20.0000000       710.275757      -1.51795948    
  -44.2380295       3.12447906      -20.0000000       710.275757      -1.51795948    
  -45.7402802       3.12332392      -20.0000000       1278.57983      -1.51585448    
  -47.2370110       3.11982203      -20.0000000       1278.57983      -1.51585448    
  -47.2300911       4.68496799      -20.0000000       1278.57983      -1.51585448    
  -45.7329903       4.68700409      -20.0000000       1278.57983      -1.51585448    
  -47.2300911       4.68496799      -20.0000000       2187.42114      -1.51578343    
  -48.7241211       4.67746210      -20.0000000       2187.42114      -1.51578343    
  -48.7411499       6.25000000      -20.0000000       2187.42114      -1.51578343    
  -47.2367287       6.25000000      -20.0000000       2187.42114      -1.51578343    
  -35.2371101      -6.25000000      -20.0000000       2316.00439       1.60232890    
  -36.7432899      -6.25000000      -20.0000000       2316.00439       1.60232890    
  -36.7384796      -4.68897390      -20.0000000       2316.00439       1.60232890    
  -35.2325211      -4.68835878      -20.0000000       2316.00439       1.60232890    
  -36.7384796      -4.68897390      -20.0000000       1346.26489       1.60709083    
  -38.2446404      -4.68936491      -20.0000000       1346.26489       1.60709083    
  -38.2396507      -3.12933803      -20.0000000       1346.26489       1.60709083    
  -36.7339096      -3.12783909      -20.0000000       1346.26489       1.60709083    
  -38.2396507      -3.12933803      -20.0000000       738.762878       1.61077428    
  -39.7453995      -3.12673903      -20.0000000       738.762878       1.61077428    
  -39.7399902      -1.56351995      -20.0000000       738.762878       1.61077428    
  -38.2346497      -1.56438303      -20.0000000       738.762878       1.61077428    
  -39.7399902      -1.56351995      -20.0000000       235.336761       1.61414838    
  -41.2455711      -1.56282198      -20.0000000       235.336761       1.61414838    
  -41.2401695       0.00000000      -20.0000000       235.336761       1.61414838    