 VARIABLES="X" "Y" "Z" "abs(p) (Pa)" "angle(p) (rad)"
ZONE N=   3650,E =    3624, F=FEPOINT, ET=QUADRILATERAL
  -56.5164909      -2.47323704      -20.0000000       1015.42426       1.24147797    
  -55.4176407      -3.26747894      -20.0000000       1015.42426       1.24147797    
  -55.9264717      -4.64953518      -20.0000000       1015.42426       1.24147797    
  -56.9148483      -3.51935697      -20.0000000       1015.42426       1.24147797    
  -56.9148483      -3.51935697      -20.0000000       1088.11023       1.25397801    
  -57.6058807      -2.18402195      -20.0000000       1088.11023       1.25397801    
  -56.5164909      -2.47323704      -20.0000000       1088.11023       1.25397801    
  -56.5164909      -2.47323704      -20.0000000       1088.11023       1.25397801    
  -54.6953812      -5.51239681      -20.0000000       928.370300       1.18307781    
  -55.9264717      -4.64953518      -20.0000000       928.370300       1.18307781    
  -55.4176407      -3.26747894      -20.0000000       928.370300       1.18307781    
  -54.2450790      -3.94889998      -20.0000000       928.370300       1.18307781    
  -54.2450790      -3.94889998      -20.0000000       836.897461       1.09120381    
  -52.9834785      -4.46340179      -20.0000000       836.897461       1.09120381    
  -53.2955093      -6.05576801      -20.0000000       836.897461       1.09120381    
  -54.6953812      -5.51239681      -20.0000000       836.897461       1.09120381    
  -56.5223999      -1.11500299      -20.0000000       1110.27673       1.30468297    
  -56.5164909      -2.47323704      -20.0000000       1110.27673       1.30468297    
  -57.6058807      -2.18402195      -20.0000000       1110.27673       1.30468297    
  -57.9577713     -0.724482894      -20.0000000       1110.27673       1.30468297    
  -56.5164909      -2.47323704      -20.0000000       1036.56921       1.32266843    
  -56.5223999      -1.11500299      -20.0000000       1036.56921       1.32266843    
  -55.1657600      -1.76926601      -20.0000000       1036.56921       1.32266843    
  -55.4176407      -3.26747894      -20.0000000       1036.56921       1.32266843    
  -54.2450790      -3.94889998      -20.0000000       979.622620       1.28206658    
  -55.4176407      -3.26747894      -20.0000000       979.622620       1.28206658    
  -55.1657600      -1.76926601      -20.0000000       979.622620       1.28206658    
  -53.8819199      -2.32836604      -20.0000000       979.622620       1.28206658    
  -52.9834785      -4.46340179      -20.0000000       753.888245      0.969010174    
  -51.6155815      -4.69134283      -20.0000000       753.888245      0.969010174    
  -51.8049088      -6.24783087      -20.0000000       753.888245      0.969010174    
  -53.2955093      -6.05576801      -20.0000000       753.888245      0.969010174    
  -56.3964119      0.254809886      -20.0000000       1123.60278       1.32623088    
  -56.5223999      -1.11500299      -20.0000000       1123.60278       1.32623088    
  -57.9577713     -0.724482894      -20.0000000       1123.60278       1.32623088    
  -57.9511719      0.779103875      -20.0000000       1123.60278       1.32623088    
  -53.8819199      -2.32836604      -20.0000000       922.122314       1.21106660    
  -52.7235603      -2.92538095      -20.0000000       922.122314       1.21106660    
  -52.9834785      -4.46340179      -20.0000000       922.122314       1.21106660    
  -54.2450790      -3.94889998      -20.0000000       922.122314       1.21106660    
  -56.5223999      -1.11500299      -20.0000000       1053.12317       1.35078979    
  -56.3964119      0.254809886      -20.0000000       1053.12317       1.35078979    
  -54.8835487     -0.325594515      -20.0000000       1053.12317       1.35078979    
  -55.1657600      -1.76926601      -20.0000000       1053.12317       1.35078979    
  -50.2990494      -6.25000000      -20.0000000       695.702332      0.822519898    
  -51.8049088      -6.24783087      -20.0000000       695.702332      0.822519898    
  -51.6155815      -4.69134283      -20.0000000       695.702332      0.822519898    
  -50.1911316      -4.70199823      -20.0000000       695.702332      0.822519898    
  -53.8819199      -2.32836604      -20.0000000       1008.72827       1.30977178    
  -55.1657600      -1.76926601      -20.0000000       1008.72827       1.30977178    
  -54.8835487     -0.325594515      -20.0000000       1008.72827       1.30977178    
  -53.3087082     -0.726661325      -20.0000000       1008.72827       1.30977178    
  -52.7235603      -2.92538095      -20.0000000       867.080383       1.11518860    
  -51.4683685      -3.18431592      -20.0000000       867.080383       1.11518860    
  -51.6155815      -4.69134283      -20.0000000       867.080383       1.11518860    
  -52.9834785      -4.46340179      -20.0000000       867.080383       1.11518860    
  -56.1067696       1.60355306      -20.0000000       1108.41675       1.32016993    
  -56.3964119      0.254809886      -20.0000000       1108.41675       1.32016993    
  -57.9511719      0.779103875      -20.0000000       1108.41675       1.32016993    
  -57.5863686       2.23558092      -20.0000000       1108.41675       1.32016993    
  -56.3964119      0.254809886      -20.0000000       1047.58191       1.34854984    
  -56.1067696       1.60355306      -20.0000000       1047.58191       1.34854984    
  -54.6488190       1.11988902      -20.0000000       1047.58191       1.34854984    
  -54.8835487     -0.325594515      -20.0000000       1047.58191       1.34854984    
  -51.8859215      -1.67511594      -20.0000000       965.417175       1.23544240    
  -52.7235603      -2.92538095      -20.0000000       965.417175       1.23544240    
  -53.8819199      -2.32836604      -20.0000000       965.417175       1.23544240    
  -53.3087082     -0.726661325      -20.0000000       965.417175       1.23544240    
  -48.7928200      -6.25000000      -20.0000000       664.127014      0.651675761    
  -50.2990494      -6.25000000      -20.0000000       664.127014      0.651675761    
  -50.1911316      -4.70199823      -20.0000000       664.127014      0.651675761    
  -48.7387619      -4.69004917      -20.0000000       664.127014      0.651675761    
  -50.1911316      -4.70199823      -20.0000000       827.909668       1.00202322    
  -51.6155815      -4.69134283      -20.0000000       827.909668       1.00202322    
  -51.4683685      -3.18431592      -20.0000000       827.909668       1.00202322    
  -50.1564102      -3.12996602      -20.0000000       827.909668       1.00202322    
  -54.6488190       1.11988902      -20.0000000       1011.67126       1.30621052    
  -53.2043991       1.01675200      -20.0000000       1011.67126       1.30621052    
  -53.3087082     -0.726661325      -20.0000000       1011.67126       1.30621052    
  -54.8835487     -0.325594515      -20.0000000       1011.67126       1.30621052    
  -51.4683685      -3.18431592      -20.0000000       922.959167       1.15840006    
  -52.7235603      -2.92538095      -20.0000000       922.959167       1.15840006    
  -51.8859215      -1.67511594      -20.0000000       922.959167       1.15840006    
  -51.8859215      -1.67511594      -20.0000000       922.959167       1.15840006    
  -55.6295395       2.91055298      -20.0000000       1064.24500       1.28689432    
  -56.1067696       1.60355306      -20.0000000       1064.24500       1.28689432    
  -57.5863686       2.23558092      -20.0000000       1064.24500       1.28689432    
  -56.8836594       3.56473303      -20.0000000       1064.24500       1.28689432    
  -47.2866096      -6.25000000      -20.0000000       655.212708      0.459413409    
  -48.7928200      -6.25000000      -20.0000000       655.212708      0.459413409    
  -48.7387619      -4.69004917      -20.0000000       655.212708      0.459413409    
  -47.2626686      -4.68801212      -20.0000000       655.212708      0.459413409    
  -48.7387619      -4.69004917      -20.0000000       804.550110      0.870225072    
  -50.1911316      -4.70199823      -20.0000000       804.550110      0.870225072    
  -50.1564102      -3.12996602      -20.0000000       804.550110      0.870225072    
  -48.7254105      -3.12169194      -20.0000000       804.550110      0.870225072    
  -50.1564102      -3.12996602      -20.0000000       910.017151       1.08427632    
  -51.4683685      -3.18431592      -20.0000000       910.017151       1.08427632    
  -51.8859215      -1.67511594      -20.0000000       910.017151       1.08427632    
  -50.2854195      -1.59545600      -20.0000000       910.017151       1.08427632    
  -54.6488190       1.11988902      -20.0000000       1017.80359       1.31922853    
  -56.1067696       1.60355306      -20.0000000       1017.80359       1.31922853    
  -55.6295395       2.91055298      -20.0000000       1017.80359       1.31922853    
  -54.3531990       2.57653904      -20.0000000       1017.80359       1.31922853    
  -51.7686501     -0.191007897      -20.0000000       972.161438       1.21168840    
  -51.8859215      -1.67511594      -20.0000000       972.161438       1.21168840    
  -53.3087082     -0.726661325      -20.0000000       972.161438       1.21168840    
  -53.3087082     -0.726661325      -20.0000000       972.161438       1.21168840    
  -51.7686501     -0.191007897      -20.0000000       980.123596       1.22812366    
  -53.3087082     -0.726661325      -20.0000000       980.123596       1.22812366    
  -53.2043991       1.01675200      -20.0000000       980.123596       1.22812366    
  -51.7500000       1.29565406      -20.0000000       980.123596       1.22812366    
  -53.0367393       2.70281792      -20.0000000       986.145203       1.27951884    
  -53.2043991       1.01675200      -20.0000000       986.145203       1.27951884    
  -54.6488190       1.11988902      -20.0000000       986.145203       1.27951884    
  -54.3531990       2.57653904      -20.0000000       986.145203       1.27951884    
  -45.7804108      -6.25000000      -20.0000000       669.881287      0.262912065    
  -47.2866096      -6.25000000      -20.0000000       669.881287      0.262912065    
  -47.2626686      -4.68801212      -20.0000000       669.881287      0.262912065    
  -45.7679100      -4.68779421      -20.0000000       669.881287      0.262912065    
  -47.2626686      -4.68801212      -20.0000000       791.944275      0.714114785    
  -48.7387619      -4.69004917      -20.0000000       791.944275      0.714114785    
  -48.7254105      -3.12169194      -20.0000000       791.944275      0.714114785    
  -47.2550507      -3.12222195      -20.0000000       791.944275      0.714114785    
  -54.5736809       4.04919481      -20.0000000       985.021301       1.22712123    
  -55.6295395       2.91055298      -20.0000000       985.021301       1.22712123    
  -56.8836594       3.56473303      -20.0000000       985.021301       1.22712123    
  -55.8850899       4.68635893      -20.0000000       985.021301       1.22712123    
  -48.7254105      -3.12169194      -20.0000000       887.421997      0.955793858    
  -50.1564102      -3.12996602      -20.0000000       887.421997      0.955793858    
  -50.2854195      -1.59545600      -20.0000000       887.421997      0.955793858    
  -48.7658615      -1.56390297      -20.0000000       887.421997      0.955793858    
  -50.2854195      -1.59545600      -20.0000000       948.249268       1.12010634    
  -51.8859215      -1.67511594      -20.0000000       948.249268       1.12010634    
  -51.7686501     -0.191007897      -20.0000000       948.249268       1.12010634    
  -50.2816200      -7.23225027E-02  -20.0000000       948.249268       1.12010634    
  -55.6295395       2.91055298      -20.0000000       972.278870       1.27051210    
  -54.5736809       4.04919481      -20.0000000       972.278870       1.27051210    
  -54.3531990       2.57653904      -20.0000000       972.278870       1.27051210    
  -54.3531990       2.57653904      -20.0000000       972.278870       1.27051210    
  -51.6464691       2.90894699      -20.0000000       951.115479       1.20099437    
  -51.7500000       1.29565406      -20.0000000       951.115479       1.20099437    
  -53.2043991       1.01675200      -20.0000000       951.115479       1.20099437    
  -53.0367393       2.70281792      -20.0000000       951.115479       1.20099437    
  -44.2742119      -6.25000000      -20.0000000       706.139343       8.01384673E-02
  -45.7804108      -6.25000000      -20.0000000       706.139343       8.01384673E-02
  -45.7679100      -4.68779421      -20.0000000       706.139343       8.01384673E-02
  -44.2670212      -4.68766403      -20.0000000       706.139343       8.01384673E-02
  -45.7679100      -4.68779421      -20.0000000       794.789062      0.545814037    
  -47.2626686      -4.68801212      -20.0000000       794.789062      0.545814037    
  -47.2550507      -3.12222195      -20.0000000       794.789062      0.545814037    
  -45.7611885      -3.12411094      -20.0000000       794.789062      0.545814037    
  -51.7500000       1.29565406      -20.0000000       949.764893       1.11893868    
  -50.2459984       1.47492099      -20.0000000       949.764893       1.11893868    
  -50.2816200      -7.23225027E-02  -20.0000000       949.764893       1.11893868    
  -51.7686501     -0.191007897      -20.0000000       949.764893       1.11893868    
  -47.2550507      -3.12222195      -20.0000000       874.828491      0.809555173    
  -48.7254105      -3.12169194      -20.0000000       874.828491      0.809555173    
  -48.7658615      -1.56390297      -20.0000000       874.828491      0.809555173    
  -47.2643318      -1.55986798      -20.0000000       874.828491      0.809555173    
  -48.7658615      -1.56390297      -20.0000000       926.289612      0.991227090    
  -50.2854195      -1.59545600      -20.0000000       926.289612      0.991227090    
  -50.2816200      -7.23225027E-02  -20.0000000       926.289612      0.991227090    
  -48.7753716      -1.42937005E-02  -20.0000000       926.289612      0.991227090    
  -54.5736809       4.04919481      -20.0000000       929.396667       1.22286367    
  -53.0954399       4.36336088      -20.0000000       929.396667       1.22286367    
  -53.0367393       2.70281792      -20.0000000       929.396667       1.22286367    
  -54.3531990       2.57653904      -20.0000000       929.396667       1.22286367    
  -54.6465797       5.53822613      -20.0000000       906.708679       1.13476038    
  -54.5736809       4.04919481      -20.0000000       906.708679       1.13476038    
  -55.8850899       4.68635893      -20.0000000       906.708679       1.13476038    
  -55.8850899       4.68635893      -20.0000000       906.708679       1.13476038    
  -44.2670212      -4.68766403      -20.0000000       758.131958      -7.92127550E-02
  -42.7620697      -4.68767691      -20.0000000       758.131958      -7.92127550E-02
  -42.7680206      -6.25000000      -20.0000000       758.131958      -7.92127550E-02
  -44.2742119      -6.25000000      -20.0000000       758.131958      -7.92127550E-02
  -44.2670212      -4.68766403      -20.0000000       814.567810      0.377103180    
  -45.7679100      -4.68779421      -20.0000000       814.567810      0.377103180    
  -45.7611885      -3.12411094      -20.0000000       814.567810      0.377103180    
  -44.2611694      -3.12488103      -20.0000000       814.567810      0.377103180    
  -45.7611885      -3.12411094      -20.0000000       875.023071      0.652302146    
  -47.2550507      -3.12222195      -20.0000000       875.023071      0.652302146    
  -47.2643318      -1.55986798      -20.0000000       875.023071      0.652302146    
  -45.7603798      -1.56126106      -20.0000000       875.023071      0.652302146    
  -50.2459984       1.47492099      -20.0000000       915.991516       1.09068143    
  -51.7500000       1.29565406      -20.0000000       915.991516       1.09068143    
  -51.6464691       2.90894699      -20.0000000       915.991516       1.09068143    
  -50.2011604       3.04989505      -20.0000000       915.991516       1.09068143    
  -54.6465797       5.53822613      -20.0000000       839.612915       1.09403729    
  -53.2416306       6.06926107      -20.0000000       839.612915       1.09403729    
  -53.0954399       4.36336088      -20.0000000       839.612915       1.09403729    
  -54.5736809       4.04919481      -20.0000000       839.612915       1.09403729    
  -47.2643318      -1.55986798      -20.0000000       913.870117      0.847233057    
  -48.7658615      -1.56390297      -20.0000000       913.870117      0.847233057    
  -48.7753716      -1.42937005E-02  -20.0000000       913.870117      0.847233057    
  -47.2657204       0.00000000      -20.0000000       913.870117      0.847233057    
  -48.7753716      -1.42937005E-02  -20.0000000       926.934326      0.991037071    
  -50.2816200      -7.23225027E-02  -20.0000000       926.934326      0.991037071    
  -50.2459984       1.47492099      -20.0000000       926.934326      0.991037071    
  -48.7560692       1.53868604      -20.0000000       926.934326      0.991037071    
  -51.6464691       2.90894699      -20.0000000       881.329102       1.13673544    
  -53.0367393       2.70281792      -20.0000000       881.329102       1.13673544    
  -53.0954399       4.36336088      -20.0000000       881.329102       1.13673544    
  -51.6648903       4.56408405      -20.0000000       881.329102       1.13673544    
  -41.2618294      -6.25000000      -20.0000000       819.177673     -0.213253871    
  -42.7680206      -6.25000000      -20.0000000       819.177673     -0.213253871    
  -42.7620697      -4.68767691      -20.0000000       819.177673     -0.213253871    
  -41.2566490      -4.68782711      -20.0000000       819.177673     -0.213253871    
  -44.2611694      -3.12488103      -20.0000000       849.255249      0.217535600    
  -42.7563400      -3.12513494      -20.0000000       849.255249      0.217535600    
  -42.7620697      -4.68767691      -20.0000000       849.255249      0.217535600    
  -44.2670212      -4.68766403      -20.0000000       849.255249      0.217535600    
  -44.2611694      -3.12488103      -20.0000000       889.537659      0.492313653    
  -45.7611885      -3.12411094      -20.0000000       889.537659      0.492313653    
  -45.7603798      -1.56126106      -20.0000000       889.537659      0.492313653    
  -44.2565308      -1.56226599      -20.0000000       889.537659      0.492313653    
  -45.7603798      -1.56126106      -20.0000000       913.424011      0.693590045    
  -47.2643318      -1.55986798      -20.0000000       913.424011      0.693590045    
  -47.2657204       0.00000000      -20.0000000       913.424011      0.693590045    
  -45.7582893       0.00000000      -20.0000000       913.424011      0.693590045    
  -47.2657204       0.00000000      -20.0000000       913.894592      0.846894026    
  -48.7753716      -1.42937005E-02  -20.0000000       913.894592      0.846894026    
  -48.7560692       1.53868604      -20.0000000       913.894592      0.846894026    
  -47.2535896       1.55706894      -20.0000000       913.894592      0.846894026    
  -48.7560692       1.53868604      -20.0000000       888.989136      0.957563877    
  -50.2459984       1.47492099      -20.0000000       888.989136      0.957563877    
  -50.2011604       3.04989505      -20.0000000       888.989136      0.957563877    
  -48.7281189       3.10503101      -20.0000000       888.989136      0.957563877    
  -50.2011604       3.04989505      -20.0000000       838.243286       1.01848400    
  -51.6464691       2.90894699      -20.0000000       838.243286       1.01848400    
  -51.6648903       4.56408405      -20.0000000       838.243286       1.01848400    
  -50.2067184       4.64797401      -20.0000000       838.243286       1.01848400    
  -51.6648903       4.56408405      -20.0000000       758.870056      0.978687882    
  -53.0954399       4.36336088      -20.0000000       758.870056      0.978687882    
  -53.2416306       6.06926107      -20.0000000       758.870056      0.978687882    
  -51.7500000       6.25000000      -20.0000000       758.870056      0.978687882    
  -39.7556496      -6.25000000      -20.0000000       882.902832     -0.324529231    
  -41.2618294      -6.25000000      -20.0000000       882.902832     -0.324529231    
  -41.2566490      -4.68782711      -20.0000000       882.902832     -0.324529231    
  -39.7507591      -4.68851089      -20.0000000       882.902832     -0.324529231    
  -41.2566490      -4.68782711      -20.0000000       894.770142       7.24346042E-02
  -42.7620697      -4.68767691      -20.0000000       894.770142       7.24346042E-02
  -42.7563400      -3.12513494      -20.0000000       894.770142       7.24346042E-02
  -41.2511406      -3.12541890      -20.0000000       894.770142       7.24346042E-02
  -44.2565308      -1.56226599      -20.0000000       917.188232      0.337053478    
  -42.7509499      -1.56253600      -20.0000000       917.188232      0.337053478    
  -42.7563400      -3.12513494      -20.0000000       917.188232      0.337053478    
  -44.2611694      -3.12488103      -20.0000000       917.188232      0.337053478    
  -44.2565308      -1.56226599      -20.0000000       926.123535      0.537055135    
  -45.7603798      -1.56126106      -20.0000000       926.123535      0.537055135    
  -45.7582893       0.00000000      -20.0000000       926.123535      0.537055135    
  -44.2515602       0.00000000      -20.0000000       926.123535      0.537055135    
  -45.7582893       0.00000000      -20.0000000       913.349792      0.692969084    
  -47.2657204       0.00000000      -20.0000000       913.349792      0.692969084    
  -47.2535896       1.55706894      -20.0000000       913.349792      0.692969084    
  -45.7509003       1.56100297      -20.0000000       913.349792      0.692969084    
  -47.2535896       1.55706894      -20.0000000       874.711304      0.808790922    
  -48.7560692       1.53868604      -20.0000000       874.711304      0.808790922    
  -48.7281189       3.10503101      -20.0000000       874.711304      0.808790922    
  -47.2370110       3.11982203      -20.0000000       874.711304      0.808790922    
  -48.7281189       3.10503101      -20.0000000       806.853699      0.874387622    
  -50.2011604       3.04989505      -20.0000000       806.853699      0.874387622    
  -50.2067184       4.64797401      -20.0000000       806.853699      0.874387622    
  -48.7241211       4.67746210      -20.0000000       806.853699      0.874387622    
  -50.2067184       4.64797401      -20.0000000       699.672180      0.830550969    
  -51.6648903       4.56408405      -20.0000000       699.672180      0.830550969    
  -51.7500000       6.25000000      -20.0000000       699.672180      0.830550969    
  -50.2455711       6.25000000      -20.0000000       699.672180      0.830550969    
  -38.2494698      -6.25000000      -20.0000000       944.026306     -0.417436689    
  -39.7556496      -6.25000000      -20.0000000       944.026306     -0.417436689    
  -39.7507591      -4.68851089      -20.0000000       944.026306     -0.417436689    
  -38.2446404      -4.68936491      -20.0000000       944.026306     -0.417436689    
  -39.7507591      -4.68851089      -20.0000000       946.252319      -5.65920547E-02
  -41.2566490      -4.68782711      -20.0000000       946.252319      -5.65920547E-02
  -41.2511406      -3.12541890      -20.0000000       946.252319      -5.65920547E-02
  -39.7453995      -3.12673903      -20.0000000       946.252319      -5.65920547E-02
  -41.2511406      -3.12541890      -20.0000000       955.325439      0.191790715    
  -42.7563400      -3.12513494      -20.0000000       955.325439      0.191790715    
  -42.7509499      -1.56253600      -20.0000000       955.325439      0.191790715    
  -41.2455711      -1.56282198      -20.0000000       955.325439      0.191790715    
  -44.2515602       0.00000000      -20.0000000       951.198792      0.384121031    
  -42.7457504       0.00000000      -20.0000000       951.198792      0.384121031    
  -42.7509499      -1.56253600      -20.0000000       951.198792      0.384121031    
  -44.2565308      -1.56226599      -20.0000000       951.198792      0.384121031    
  -44.2515602       0.00000000      -20.0000000       926.127136      0.536438823    
  -45.7582893       0.00000000      -20.0000000       926.127136      0.536438823    
  -45.7509003       1.56100297      -20.0000000       926.127136      0.536438823    
  -44.2452011       1.56199801      -20.0000000       926.127136      0.536438823    
  -45.7509003       1.56100297      -20.0000000       874.724121      0.650380909    
  -47.2535896       1.55706894      -20.0000000       874.724121      0.650380909    
  -47.2370110       3.11982203      -20.0000000       874.724121      0.650380909    
  -45.7402802       3.12332392      -20.0000000       874.724121      0.650380909    
  -47.2370110       3.11982203      -20.0000000       791.827332      0.712568700    
  -48.7281189       3.10503101      -20.0000000       791.827332      0.712568700    
  -48.7241211       4.67746210      -20.0000000       791.827332      0.712568700    
  -47.2300911       4.68496799      -20.0000000       791.827332      0.712568700    
  -48.7241211       4.67746210      -20.0000000       665.013855      0.652073503    
  -50.2067184       4.64797401      -20.0000000       665.013855      0.652073503    
  -50.2455711       6.25000000      -20.0000000       665.013855      0.652073503    
  -48.7411499       6.25000000      -20.0000000       665.013855      0.652073503    
  -36.7432899      -6.25000000      -20.0000000       998.342468     -0.496314198    
  -38.2494698      -6.25000000      -20.0000000       998.342468     -0.496314198    
  -38.2446404      -4.68936491      -20.0000000       998.342468     -0.496314198    
  -36.7384796      -4.68897390      -20.0000000       998.342468     -0.496314198    
  -38.2446404      -4.68936491      -20.0000000       998.994690     -0.170301646    
  -39.7507591      -4.68851089      -20.0000000       998.994690     -0.170301646    
  -39.7453995      -3.12673903      -20.0000000       998.994690     -0.170301646    
  -38.2396507      -3.12933803      -20.0000000       998.994690     -0.170301646    
  -39.7453995      -3.12673903      -20.0000000       999.780396       5.87851889E-02
  -41.2511406      -3.12541890      -20.0000000       999.780396       5.87851889E-02
  -41.2455711      -1.56282198      -20.0000000       999.780396       5.87851889E-02
  -39.7399902      -1.56351995      -20.0000000       999.780396       5.87851889E-02
  -41.2455711      -1.56282198      -20.0000000       986.283142      0.239568353    
  -42.7509499      -1.56253600      -20.0000000       986.283142      0.239568353    
  -42.7457504       0.00000000      -20.0000000       986.283142      0.239568353    
  -41.2401695       0.00000000      -20.0000000       986.283142      0.239568353    
  -44.2452011       1.56199801      -20.0000000       951.239624      0.383443981    
  -42.7402611       1.56238496      -20.0000000       951.239624      0.383443981    
  -42.7457504       0.00000000      -20.0000000       951.239624      0.383443981    
  -44.2515602       0.00000000      -20.0000000       951.239624      0.383443981    
  -44.2452011       1.56199801      -20.0000000       889.349060      0.490108490    
  -45.7509003       1.56100297      -20.0000000       889.349060      0.490108490    
  -45.7402802       3.12332392      -20.0000000       889.349060      0.490108490    
  -44.2380295       3.12447906      -20.0000000       889.349060      0.490108490    
  -45.7402802       3.12332392      -20.0000000       794.702148      0.542305470    
  -47.2370110       3.11982203      -20.0000000       794.702148      0.542305470    
  -47.2300911       4.68496799      -20.0000000       794.702148      0.542305470    
  -45.7329903       4.68700409      -20.0000000       794.702148      0.542305470    
  -47.2300911       4.68496799      -20.0000000       655.221008      0.454599321    
  -48.7241211       4.67746210      -20.0000000       655.221008      0.454599321    
  -48.7411499       6.25000000      -20.0000000       655.221008      0.454599321    
  -47.2367287       6.25000000      -20.0000000       655.221008      0.454599321    
  -35.2371101      -6.25000000      -20.0000000       1042.63855     -0.564493418    
  -36.7432899      -6.25000000      -20.0000000       1042.63855     -0.564493418    
  -36.7384796      -4.68897390      -20.0000000       1042.63855     -0.564493418    
  -35.2325211      -4.68835878      -20.0000000       1042.63855     -0.564493418    
  -36.7384796      -4.68897390      -20.0000000       1048.66284     -0.271049321    
  -38.2446404      -4.68936491      -20.0000000       1048.66284     -0.271049321    
  -38.2396507      -3.12933803      -20.0000000       1048.66284     -0.271049321    
  -36.7339096      -3.12783909      -20.0000000       1048.66284     -0.271049321    
  -38.2396507      -3.12933803      -20.0000000       1046.59888      -6.14679679E-02
  -39.7453995      -3.12673903      -20.0000000       1046.59888      -6.14679679E-02
  -39.7399902      -1.56351995      -20.0000000       1046.59888      -6.14679679E-02
  -38.2346497      -1.56438303      -20.0000000       1046.59888      -6.14679679E-02
  -39.7399902      -1.56351995      -20.0000000       1027.54907      0.105566107    
  -41.2455711      -1.56282198      -20.0000000       1027.54907      0.105566107    
  -41.2401695       0.00000000      -20.0000000       1027.54907      0.105566107    