 VARIABLES="X" "Y" "Z" "abs(p) (Pa)" "angle(p) (rad)"
ZONE N=   3650,E =    3624, F=FEPOINT, ET=QUADRILATERAL
  -56.5164909      -2.47323704      -20.0000000       17.1861610       2.61182928    
  -55.4176407      -3.26747894      -20.0000000       17.1861610       2.61182928    
  -55.9264717      -4.64953518      -20.0000000       17.1861610       2.61182928    
  -56.9148483      -3.51935697      -20.0000000       17.1861610       2.61182928    
  -56.9148483      -3.51935697      -20.0000000       14.3790693       2.65983939    
  -57.6058807      -2.18402195      -20.0000000       14.3790693       2.65983939    
  -56.5164909      -2.47323704      -20.0000000       14.3790693       2.65983939    
  -56.5164909      -2.47323704      -20.0000000       14.3790693       2.65983939    
  -54.6953812      -5.51239681      -20.0000000       19.2032433       2.55728459    
  -55.9264717      -4.64953518      -20.0000000       19.2032433       2.55728459    
  -55.4176407      -3.26747894      -20.0000000       19.2032433       2.55728459    
  -54.2450790      -3.94889998      -20.0000000       19.2032433       2.55728459    
  -54.2450790      -3.94889998      -20.0000000       21.0301380       2.51269746    
  -52.9834785      -4.46340179      -20.0000000       21.0301380       2.51269746    
  -53.2955093      -6.05576801      -20.0000000       21.0301380       2.51269746    
  -54.6953812      -5.51239681      -20.0000000       21.0301380       2.51269746    
  -56.5223999      -1.11500299      -20.0000000       16.9008274       2.70458746    
  -56.5164909      -2.47323704      -20.0000000       16.9008274       2.70458746    
  -57.6058807      -2.18402195      -20.0000000       16.9008274       2.70458746    
  -57.9577713     -0.724482894      -20.0000000       16.9008274       2.70458746    
  -56.5164909      -2.47323704      -20.0000000       22.5085526       2.69728422    
  -56.5223999      -1.11500299      -20.0000000       22.5085526       2.69728422    
  -55.1657600      -1.76926601      -20.0000000       22.5085526       2.69728422    
  -55.4176407      -3.26747894      -20.0000000       22.5085526       2.69728422    
  -54.2450790      -3.94889998      -20.0000000       25.2635040       2.63351488    
  -55.4176407      -3.26747894      -20.0000000       25.2635040       2.63351488    
  -55.1657600      -1.76926601      -20.0000000       25.2635040       2.63351488    
  -53.8819199      -2.32836604      -20.0000000       25.2635040       2.63351488    
  -52.9834785      -4.46340179      -20.0000000       22.8941383       2.48131704    
  -51.6155815      -4.69134283      -20.0000000       22.8941383       2.48131704    
  -51.8049088      -6.24783087      -20.0000000       22.8941383       2.48131704    
  -53.2955093      -6.05576801      -20.0000000       22.8941383       2.48131704    
  -56.3964119      0.254809886      -20.0000000       18.2189522       2.82973814    
  -56.5223999      -1.11500299      -20.0000000       18.2189522       2.82973814    
  -57.9577713     -0.724482894      -20.0000000       18.2189522       2.82973814    
  -57.9511719      0.779103875      -20.0000000       18.2189522       2.82973814    
  -53.8819199      -2.32836604      -20.0000000       26.9150448       2.57333827    
  -52.7235603      -2.92538095      -20.0000000       26.9150448       2.57333827    
  -52.9834785      -4.46340179      -20.0000000       26.9150448       2.57333827    
  -54.2450790      -3.94889998      -20.0000000       26.9150448       2.57333827    
  -56.5223999      -1.11500299      -20.0000000       24.5911770       2.87961912    
  -56.3964119      0.254809886      -20.0000000       24.5911770       2.87961912    
  -54.8835487     -0.325594515      -20.0000000       24.5911770       2.87961912    
  -55.1657600      -1.76926601      -20.0000000       24.5911770       2.87961912    
  -50.2990494      -6.25000000      -20.0000000       24.7564144       2.46189904    
  -51.8049088      -6.24783087      -20.0000000       24.7564144       2.46189904    
  -51.6155815      -4.69134283      -20.0000000       24.7564144       2.46189904    
  -50.1911316      -4.70199823      -20.0000000       24.7564144       2.46189904    
  -53.8819199      -2.32836604      -20.0000000       28.2987213       2.84084368    
  -55.1657600      -1.76926601      -20.0000000       28.2987213       2.84084368    
  -54.8835487     -0.325594515      -20.0000000       28.2987213       2.84084368    
  -53.3087082     -0.726661325      -20.0000000       28.2987213       2.84084368    
  -52.7235603      -2.92538095      -20.0000000       28.3089390       2.53525186    
  -51.4683685      -3.18431592      -20.0000000       28.3089390       2.53525186    
  -51.6155815      -4.69134283      -20.0000000       28.3089390       2.53525186    
  -52.9834785      -4.46340179      -20.0000000       28.3089390       2.53525186    
  -56.1067696       1.60355306      -20.0000000       18.5812054       2.98775649    
  -56.3964119      0.254809886      -20.0000000       18.5812054       2.98775649    
  -57.9511719      0.779103875      -20.0000000       18.5812054       2.98775649    
  -57.5863686       2.23558092      -20.0000000       18.5812054       2.98775649    
  -56.3964119      0.254809886      -20.0000000       24.7953033       3.08225036    
  -56.1067696       1.60355306      -20.0000000       24.7953033       3.08225036    
  -54.6488190       1.11988902      -20.0000000       24.7953033       3.08225036    
  -54.8835487     -0.325594515      -20.0000000       24.7953033       3.08225036    
  -51.8859215      -1.67511594      -20.0000000       30.5633450       2.77226377    
  -52.7235603      -2.92538095      -20.0000000       30.5633450       2.77226377    
  -53.8819199      -2.32836604      -20.0000000       30.5633450       2.77226377    
  -53.3087082     -0.726661325      -20.0000000       30.5633450       2.77226377    
  -48.7928200      -6.25000000      -20.0000000       26.3407383       2.45141053    
  -50.2990494      -6.25000000      -20.0000000       26.3407383       2.45141053    
  -50.1911316      -4.70199823      -20.0000000       26.3407383       2.45141053    
  -48.7387619      -4.69004917      -20.0000000       26.3407383       2.45141053    
  -50.1911316      -4.70199823      -20.0000000       29.9929352       2.52916574    
  -51.6155815      -4.69134283      -20.0000000       29.9929352       2.52916574    
  -51.4683685      -3.18431592      -20.0000000       29.9929352       2.52916574    
  -50.1564102      -3.12996602      -20.0000000       29.9929352       2.52916574    
  -54.6488190       1.11988902      -20.0000000       28.7628288       3.07576704    
  -53.2043991       1.01675200      -20.0000000       28.7628288       3.07576704    
  -53.3087082     -0.726661325      -20.0000000       28.7628288       3.07576704    
  -54.8835487     -0.325594515      -20.0000000       28.7628288       3.07576704    
  -51.4683685      -3.18431592      -20.0000000       31.1762257       2.68258858    
  -52.7235603      -2.92538095      -20.0000000       31.1762257       2.68258858    
  -51.8859215      -1.67511594      -20.0000000       31.1762257       2.68258858    
  -51.8859215      -1.67511594      -20.0000000       31.1762257       2.68258858    
  -55.6295395       2.91055298      -20.0000000       17.9676704      -3.11991262    
  -56.1067696       1.60355306      -20.0000000       17.9676704      -3.11991262    
  -57.5863686       2.23558092      -20.0000000       17.9676704      -3.11991262    
  -56.8836594       3.56473303      -20.0000000       17.9676704      -3.11991262    
  -47.2866096      -6.25000000      -20.0000000       27.6785851       2.44661975    
  -48.7928200      -6.25000000      -20.0000000       27.6785851       2.44661975    
  -48.7387619      -4.69004917      -20.0000000       27.6785851       2.44661975    
  -47.2626686      -4.68801212      -20.0000000       27.6785851       2.44661975    
  -48.7387619      -4.69004917      -20.0000000       31.7218971       2.53884697    
  -50.1911316      -4.70199823      -20.0000000       31.7218971       2.53884697    
  -50.1564102      -3.12996602      -20.0000000       31.7218971       2.53884697    
  -48.7254105      -3.12169194      -20.0000000       31.7218971       2.53884697    
  -50.1564102      -3.12996602      -20.0000000       33.0877495       2.71882153    
  -51.4683685      -3.18431592      -20.0000000       33.0877495       2.71882153    
  -51.8859215      -1.67511594      -20.0000000       33.0877495       2.71882153    
  -50.2854195      -1.59545600      -20.0000000       33.0877495       2.71882153    
  -54.6488190       1.11988902      -20.0000000       23.4470520      -2.98852873    
  -56.1067696       1.60355306      -20.0000000       23.4470520      -2.98852873    
  -55.6295395       2.91055298      -20.0000000       23.4470520      -2.98852873    
  -54.3531990       2.57653904      -20.0000000       23.4470520      -2.98852873    
  -51.7686501     -0.191007897      -20.0000000       32.1353340       2.92922449    
  -51.8859215      -1.67511594      -20.0000000       32.1353340       2.92922449    
  -53.3087082     -0.726661325      -20.0000000       32.1353340       2.92922449    
  -53.3087082     -0.726661325      -20.0000000       32.1353340       2.92922449    
  -51.7686501     -0.191007897      -20.0000000       31.3199959       3.11432886    
  -53.3087082     -0.726661325      -20.0000000       31.3199959       3.11432886    
  -53.2043991       1.01675200      -20.0000000       31.3199959       3.11432886    
  -51.7500000       1.29565406      -20.0000000       31.3199959       3.11432886    
  -53.0367393       2.70281792      -20.0000000       26.8574905      -2.95176458    
  -53.2043991       1.01675200      -20.0000000       26.8574905      -2.95176458    
  -54.6488190       1.11988902      -20.0000000       26.8574905      -2.95176458    
  -54.3531990       2.57653904      -20.0000000       26.8574905      -2.95176458    
  -45.7804108      -6.25000000      -20.0000000       29.1276722       2.44903350    
  -47.2866096      -6.25000000      -20.0000000       29.1276722       2.44903350    
  -47.2626686      -4.68801212      -20.0000000       29.1276722       2.44903350    
  -45.7679100      -4.68779421      -20.0000000       29.1276722       2.44903350    
  -47.2626686      -4.68801212      -20.0000000       33.3000107       2.54822993    
  -48.7387619      -4.69004917      -20.0000000       33.3000107       2.54822993    
  -48.7254105      -3.12169194      -20.0000000       33.3000107       2.54822993    
  -47.2550507      -3.12222195      -20.0000000       33.3000107       2.54822993    
  -54.5736809       4.04919481      -20.0000000       16.8750954      -2.88500857    
  -55.6295395       2.91055298      -20.0000000       16.8750954      -2.88500857    
  -56.8836594       3.56473303      -20.0000000       16.8750954      -2.88500857    
  -55.8850899       4.68635893      -20.0000000       16.8750954      -2.88500857    
  -48.7254105      -3.12169194      -20.0000000       34.9753876       2.73212290    
  -50.1564102      -3.12996602      -20.0000000       34.9753876       2.73212290    
  -50.2854195      -1.59545600      -20.0000000       34.9753876       2.73212290    
  -48.7658615      -1.56390297      -20.0000000       34.9753876       2.73212290    
  -50.2854195      -1.59545600      -20.0000000       34.0317307       2.93334246    
  -51.8859215      -1.67511594      -20.0000000       34.0317307       2.93334246    
  -51.7686501     -0.191007897      -20.0000000       34.0317307       2.93334246    
  -50.2816200      -7.23225027E-02  -20.0000000       34.0317307       2.93334246    
  -55.6295395       2.91055298      -20.0000000       21.2330666      -2.80372858    
  -54.5736809       4.04919481      -20.0000000       21.2330666      -2.80372858    
  -54.3531990       2.57653904      -20.0000000       21.2330666      -2.80372858    
  -54.3531990       2.57653904      -20.0000000       21.2330666      -2.80372858    
  -51.6464691       2.90894699      -20.0000000       28.9319286      -2.89708090    
  -51.7500000       1.29565406      -20.0000000       28.9319286      -2.89708090    
  -53.2043991       1.01675200      -20.0000000       28.9319286      -2.89708090    
  -53.0367393       2.70281792      -20.0000000       28.9319286      -2.89708090    
  -44.2742119      -6.25000000      -20.0000000       31.0474300       2.46091366    
  -45.7804108      -6.25000000      -20.0000000       31.0474300       2.46091366    
  -45.7679100      -4.68779421      -20.0000000       31.0474300       2.46091366    
  -44.2670212      -4.68766403      -20.0000000       31.0474300       2.46091366    
  -45.7679100      -4.68779421      -20.0000000       34.9085770       2.55909538    
  -47.2626686      -4.68801212      -20.0000000       34.9085770       2.55909538    
  -47.2550507      -3.12222195      -20.0000000       34.9085770       2.55909538    
  -45.7611885      -3.12411094      -20.0000000       34.9085770       2.55909538    
  -51.7500000       1.29565406      -20.0000000       33.2551270      -3.10899138    
  -50.2459984       1.47492099      -20.0000000       33.2551270      -3.10899138    
  -50.2816200      -7.23225027E-02  -20.0000000       33.2551270      -3.10899138    
  -51.7686501     -0.191007897      -20.0000000       33.2551270      -3.10899138    
  -47.2550507      -3.12222195      -20.0000000       36.7286491       2.74081826    
  -48.7254105      -3.12169194      -20.0000000       36.7286491       2.74081826    
  -48.7658615      -1.56390297      -20.0000000       36.7286491       2.74081826    
  -47.2643318      -1.55986798      -20.0000000       36.7286491       2.74081826    
  -48.7658615      -1.56390297      -20.0000000       36.0401306       2.95390129    
  -50.2854195      -1.59545600      -20.0000000       36.0401306       2.95390129    
  -50.2816200      -7.23225027E-02  -20.0000000       36.0401306       2.95390129    
  -48.7753716      -1.42937005E-02  -20.0000000       36.0401306       2.95390129    
  -54.5736809       4.04919481      -20.0000000       22.6996193      -2.68933296    
  -53.0954399       4.36336088      -20.0000000       22.6996193      -2.68933296    
  -53.0367393       2.70281792      -20.0000000       22.6996193      -2.68933296    
  -54.3531990       2.57653904      -20.0000000       22.6996193      -2.68933296    
  -54.6465797       5.53822613      -20.0000000       15.0571423      -2.69948530    
  -54.5736809       4.04919481      -20.0000000       15.0571423      -2.69948530    
  -55.8850899       4.68635893      -20.0000000       15.0571423      -2.69948530    
  -55.8850899       4.68635893      -20.0000000       15.0571423      -2.69948530    
  -44.2670212      -4.68766403      -20.0000000       33.5764847       2.48325539    
  -42.7620697      -4.68767691      -20.0000000       33.5764847       2.48325539    
  -42.7680206      -6.25000000      -20.0000000       33.5764847       2.48325539    
  -44.2742119      -6.25000000      -20.0000000       33.5764847       2.48325539    
  -44.2670212      -4.68766403      -20.0000000       36.7376823       2.57255340    
  -45.7679100      -4.68779421      -20.0000000       36.7376823       2.57255340    
  -45.7611885      -3.12411094      -20.0000000       36.7376823       2.57255340    
  -44.2611694      -3.12488103      -20.0000000       36.7376823       2.57255340    
  -45.7611885      -3.12411094      -20.0000000       38.4928741       2.74869370    
  -47.2550507      -3.12222195      -20.0000000       38.4928741       2.74869370    
  -47.2643318      -1.55986798      -20.0000000       38.4928741       2.74869370    
  -45.7603798      -1.56126106      -20.0000000       38.4928741       2.74869370    
  -50.2459984       1.47492099      -20.0000000       30.6132336      -2.84783769    
  -51.7500000       1.29565406      -20.0000000       30.6132336      -2.84783769    
  -51.6464691       2.90894699      -20.0000000       30.6132336      -2.84783769    
  -50.2011604       3.04989505      -20.0000000       30.6132336      -2.84783769    
  -54.6465797       5.53822613      -20.0000000       16.7672539      -2.45472407    
  -53.2416306       6.06926107      -20.0000000       16.7672539      -2.45472407    
  -53.0954399       4.36336088      -20.0000000       16.7672539      -2.45472407    
  -54.5736809       4.04919481      -20.0000000       16.7672539      -2.45472407    
  -47.2643318      -1.55986798      -20.0000000       37.9464188       2.96223974    
  -48.7658615      -1.56390297      -20.0000000       37.9464188       2.96223974    
  -48.7753716      -1.42937005E-02  -20.0000000       37.9464188       2.96223974    
  -47.2657204       0.00000000      -20.0000000       37.9464188       2.96223974    
  -48.7753716      -1.42937005E-02  -20.0000000       35.1518631      -3.08825469    
  -50.2816200      -7.23225027E-02  -20.0000000       35.1518631      -3.08825469    
  -50.2459984       1.47492099      -20.0000000       35.1518631      -3.08825469    
  -48.7560692       1.53868604      -20.0000000       35.1518631      -3.08825469    
  -51.6464691       2.90894699      -20.0000000       24.5285854      -2.59948802    
  -53.0367393       2.70281792      -20.0000000       24.5285854      -2.59948802    
  -53.0954399       4.36336088      -20.0000000       24.5285854      -2.59948802    
  -51.6648903       4.56408405      -20.0000000       24.5285854      -2.59948802    
  -41.2618294      -6.25000000      -20.0000000       36.7261353       2.51363826    
  -42.7680206      -6.25000000      -20.0000000       36.7261353       2.51363826    
  -42.7620697      -4.68767691      -20.0000000       36.7261353       2.51363826    
  -41.2566490      -4.68782711      -20.0000000       36.7261353       2.51363826    
  -44.2611694      -3.12488103      -20.0000000       38.8584785       2.58927035    
  -42.7563400      -3.12513494      -20.0000000       38.8584785       2.58927035    
  -42.7620697      -4.68767691      -20.0000000       38.8584785       2.58927035    
  -44.2670212      -4.68766403      -20.0000000       38.8584785       2.58927035    
  -44.2611694      -3.12488103      -20.0000000       40.3845901       2.75660086    
  -45.7611885      -3.12411094      -20.0000000       40.3845901       2.75660086    
  -45.7603798      -1.56126106      -20.0000000       40.3845901       2.75660086    
  -44.2565308      -1.56226599      -20.0000000       40.3845901       2.75660086    
  -45.7603798      -1.56126106      -20.0000000       39.8802605       2.96441722    
  -47.2643318      -1.55986798      -20.0000000       39.8802605       2.96441722    
  -47.2657204       0.00000000      -20.0000000       39.8802605       2.96441722    
  -45.7582893       0.00000000      -20.0000000       39.8802605       2.96441722    
  -47.2657204       0.00000000      -20.0000000       37.1075439      -3.08477044    
  -48.7753716      -1.42937005E-02  -20.0000000       37.1075439      -3.08477044    
  -48.7560692       1.53868604      -20.0000000       37.1075439      -3.08477044    
  -47.2535896       1.55706894      -20.0000000       37.1075439      -3.08477044    
  -48.7560692       1.53868604      -20.0000000       32.4033508      -2.82872653    
  -50.2459984       1.47492099      -20.0000000       32.4033508      -2.82872653    
  -50.2011604       3.04989505      -20.0000000       32.4033508      -2.82872653    
  -48.7281189       3.10503101      -20.0000000       32.4033508      -2.82872653    
  -50.2011604       3.04989505      -20.0000000       26.2341900      -2.54928398    
  -51.6464691       2.90894699      -20.0000000       26.2341900      -2.54928398    
  -51.6648903       4.56408405      -20.0000000       26.2341900      -2.54928398    
  -50.2067184       4.64797401      -20.0000000       26.2341900      -2.54928398    
  -51.6648903       4.56408405      -20.0000000       18.6342354      -2.26239848    
  -53.0954399       4.36336088      -20.0000000       18.6342354      -2.26239848    
  -53.2416306       6.06926107      -20.0000000       18.6342354      -2.26239848    
  -51.7500000       6.25000000      -20.0000000       18.6342354      -2.26239848    
  -39.7556496      -6.25000000      -20.0000000       40.3231773       2.54861712    
  -41.2618294      -6.25000000      -20.0000000       40.3231773       2.54861712    
  -41.2566490      -4.68782711      -20.0000000       40.3231773       2.54861712    
  -39.7507591      -4.68851089      -20.0000000       40.3231773       2.54861712    
  -41.2566490      -4.68782711      -20.0000000       41.2546272       2.60847640    
  -42.7620697      -4.68767691      -20.0000000       41.2546272       2.60847640    
  -42.7563400      -3.12513494      -20.0000000       41.2546272       2.60847640    
  -41.2511406      -3.12541890      -20.0000000       41.2546272       2.60847640    
  -44.2565308      -1.56226599      -20.0000000       42.4202919       2.76540494    
  -42.7509499      -1.56253600      -20.0000000       42.4202919       2.76540494    
  -42.7563400      -3.12513494      -20.0000000       42.4202919       2.76540494    
  -44.2611694      -3.12488103      -20.0000000       42.4202919       2.76540494    
  -44.2565308      -1.56226599      -20.0000000       41.8978767       2.96501803    
  -45.7603798      -1.56126106      -20.0000000       41.8978767       2.96501803    
  -45.7582893       0.00000000      -20.0000000       41.8978767       2.96501803    
  -44.2515602       0.00000000      -20.0000000       41.8978767       2.96501803    
  -45.7582893       0.00000000      -20.0000000       39.1773529      -3.09086227    
  -47.2657204       0.00000000      -20.0000000       39.1773529      -3.09086227    
  -47.2535896       1.55706894      -20.0000000       39.1773529      -3.09086227    
  -45.7509003       1.56100297      -20.0000000       39.1773529      -3.09086227    
  -47.2535896       1.55706894      -20.0000000       34.3956642      -2.83552217    
  -48.7560692       1.53868604      -20.0000000       34.3956642      -2.83552217    
  -48.7281189       3.10503101      -20.0000000       34.3956642      -2.83552217    
  -47.2370110       3.11982203      -20.0000000       34.3956642      -2.83552217    
  -48.7281189       3.10503101      -20.0000000       28.1143093      -2.54210019    
  -50.2011604       3.04989505      -20.0000000       28.1143093      -2.54210019    
  -50.2067184       4.64797401      -20.0000000       28.1143093      -2.54210019    
  -48.7241211       4.67746210      -20.0000000       28.1143093      -2.54210019    
  -50.2067184       4.64797401      -20.0000000       21.0016956      -2.18738055    
  -51.6648903       4.56408405      -20.0000000       21.0016956      -2.18738055    
  -51.7500000       6.25000000      -20.0000000       21.0016956      -2.18738055    
  -50.2455711       6.25000000      -20.0000000       21.0016956      -2.18738055    
  -38.2494698      -6.25000000      -20.0000000       44.0391045       2.58501029    
  -39.7556496      -6.25000000      -20.0000000       44.0391045       2.58501029    
  -39.7507591      -4.68851089      -20.0000000       44.0391045       2.58501029    
  -38.2446404      -4.68936491      -20.0000000       44.0391045       2.58501029    
  -39.7507591      -4.68851089      -20.0000000       43.8137779       2.62919688    
  -41.2566490      -4.68782711      -20.0000000       43.8137779       2.62919688    
  -41.2511406      -3.12541890      -20.0000000       43.8137779       2.62919688    
  -39.7453995      -3.12673903      -20.0000000       43.8137779       2.62919688    
  -41.2511406      -3.12541890      -20.0000000       44.5971909       2.77497482    
  -42.7563400      -3.12513494      -20.0000000       44.5971909       2.77497482    
  -42.7509499      -1.56253600      -20.0000000       44.5971909       2.77497482    
  -41.2455711      -1.56282198      -20.0000000       44.5971909       2.77497482    
  -44.2515602       0.00000000      -20.0000000       44.0088005       2.96538663    
  -42.7457504       0.00000000      -20.0000000       44.0088005       2.96538663    
  -42.7509499      -1.56253600      -20.0000000       44.0088005       2.96538663    
  -44.2565308      -1.56226599      -20.0000000       44.0088005       2.96538663    
  -44.2515602       0.00000000      -20.0000000       41.3570557      -3.10095000    
  -45.7582893       0.00000000      -20.0000000       41.3570557      -3.10095000    
  -45.7509003       1.56100297      -20.0000000       41.3570557      -3.10095000    
  -44.2452011       1.56199801      -20.0000000       41.3570557      -3.10095000    
  -45.7509003       1.56100297      -20.0000000       36.5863457      -2.85641956    
  -47.2535896       1.55706894      -20.0000000       36.5863457      -2.85641956    
  -47.2370110       3.11982203      -20.0000000       36.5863457      -2.85641956    
  -45.7402802       3.12332392      -20.0000000       36.5863457      -2.85641956    
  -47.2370110       3.11982203      -20.0000000       30.1905155      -2.57007909    
  -48.7281189       3.10503101      -20.0000000       30.1905155      -2.57007909    
  -48.7241211       4.67746210      -20.0000000       30.1905155      -2.57007909    
  -47.2300911       4.68496799      -20.0000000       30.1905155      -2.57007909    
  -48.7241211       4.67746210      -20.0000000       23.3214664      -2.20027304    
  -50.2067184       4.64797401      -20.0000000       23.3214664      -2.20027304    
  -50.2455711       6.25000000      -20.0000000       23.3214664      -2.20027304    
  -48.7411499       6.25000000      -20.0000000       23.3214664      -2.20027304    
  -36.7432899      -6.25000000      -20.0000000       47.4637566       2.62094522    
  -38.2494698      -6.25000000      -20.0000000       47.4637566       2.62094522    
  -38.2446404      -4.68936491      -20.0000000       47.4637566       2.62094522    
  -36.7384796      -4.68897390      -20.0000000       47.4637566       2.62094522    
  -38.2446404      -4.68936491      -20.0000000       46.3716278       2.65052056    
  -39.7507591      -4.68851089      -20.0000000       46.3716278       2.65052056    
  -39.7453995      -3.12673903      -20.0000000       46.3716278       2.65052056    
  -38.2396507      -3.12933803      -20.0000000       46.3716278       2.65052056    
  -39.7453995      -3.12673903      -20.0000000       46.8019943       2.78488851    
  -41.2511406      -3.12541890      -20.0000000       46.8019943       2.78488851    
  -41.2455711      -1.56282198      -20.0000000       46.8019943       2.78488851    
  -39.7399902      -1.56351995      -20.0000000       46.8019943       2.78488851    
  -41.2455711      -1.56282198      -20.0000000       46.1729927       2.96604538    
  -42.7509499      -1.56253600      -20.0000000       46.1729927       2.96604538    
  -42.7457504       0.00000000      -20.0000000       46.1729927       2.96604538    
  -41.2401695       0.00000000      -20.0000000       46.1729927       2.96604538    
  -44.2452011       1.56199801      -20.0000000       43.6200142      -3.11199641    
  -42.7402611       1.56238496      -20.0000000       43.6200142      -3.11199641    
  -42.7457504       0.00000000      -20.0000000       43.6200142      -3.11199641    
  -44.2515602       0.00000000      -20.0000000       43.6200142      -3.11199641    
  -44.2452011       1.56199801      -20.0000000       38.9451637      -2.88419509    
  -45.7509003       1.56100297      -20.0000000       38.9451637      -2.88419509    
  -45.7402802       3.12332392      -20.0000000       38.9451637      -2.88419509    
  -44.2380295       3.12447906      -20.0000000       38.9451637      -2.88419509    
  -45.7402802       3.12332392      -20.0000000       32.4980927      -2.62039399    
  -47.2370110       3.11982203      -20.0000000       32.4980927      -2.62039399    
  -47.2300911       4.68496799      -20.0000000       32.4980927      -2.62039399    
  -45.7329903       4.68700409      -20.0000000       32.4980927      -2.62039399    
  -47.2300911       4.68496799      -20.0000000       25.5010681      -2.27220392    
  -48.7241211       4.67746210      -20.0000000       25.5010681      -2.27220392    
  -48.7411499       6.25000000      -20.0000000       25.5010681      -2.27220392    
  -47.2367287       6.25000000      -20.0000000       25.5010681      -2.27220392    
  -35.2371101      -6.25000000      -20.0000000       50.2447052       2.65477061    
  -36.7432899      -6.25000000      -20.0000000       50.2447052       2.65477061    
  -36.7384796      -4.68897390      -20.0000000       50.2447052       2.65477061    
  -35.2325211      -4.68835878      -20.0000000       50.2447052       2.65477061    
  -36.7384796      -4.68897390      -20.0000000       48.6820793       2.67208147    
  -38.2446404      -4.68936491      -20.0000000       48.6820793       2.67208147    
  -38.2396507      -3.12933803      -20.0000000       48.6820793       2.67208147    
  -36.7339096      -3.12783909      -20.0000000       48.6820793       2.67208147    
  -38.2396507      -3.12933803      -20.0000000       48.9343414       2.79518771    
  -39.7453995      -3.12673903      -20.0000000       48.9343414       2.79518771    
  -39.7399902      -1.56351995      -20.0000000       48.9343414       2.79518771    
  -38.2346497      -1.56438303      -20.0000000       48.9343414       2.79518771    
  -39.7399902      -1.56351995      -20.0000000       48.2804375       2.96701217    
  -41.2455711      -1.56282198      -20.0000000       48.2804375       2.96701217    
  -41.2401695       0.00000000      -20.0000000       48.2804375       2.96701217    