 VARIABLES="X" "Y" "Z" "abs(p) (Pa)" "angle(p) (rad)"
ZONE N=   3650,E =    3624, F=FEPOINT, ET=QUADRILATERAL
  -56.5164909      -2.47323704      -20.0000000       2592.89038       1.57212484    
  -55.4176407      -3.26747894      -20.0000000       2592.89038       1.57212484    
  -55.9264717      -4.64953518      -20.0000000       2592.89038       1.57212484    
  -56.9148483      -3.51935697      -20.0000000       2592.89038       1.57212484    
  -56.9148483      -3.51935697      -20.0000000       2104.19873       1.57208407    
  -57.6058807      -2.18402195      -20.0000000       2104.19873       1.57208407    
  -56.5164909      -2.47323704      -20.0000000       2104.19873       1.57208407    
  -56.5164909      -2.47323704      -20.0000000       2104.19873       1.57208407    
  -54.6953812      -5.51239681      -20.0000000       3250.12646       1.57212555    
  -55.9264717      -4.64953518      -20.0000000       3250.12646       1.57212555    
  -55.4176407      -3.26747894      -20.0000000       3250.12646       1.57212555    
  -54.2450790      -3.94889998      -20.0000000       3250.12646       1.57212555    
  -54.2450790      -3.94889998      -20.0000000       3833.20679       1.57210588    
  -52.9834785      -4.46340179      -20.0000000       3833.20679       1.57210588    
  -53.2955093      -6.05576801      -20.0000000       3833.20679       1.57210588    
  -54.6953812      -5.51239681      -20.0000000       3833.20679       1.57210588    
  -56.5223999      -1.11500299      -20.0000000       1144.40869       1.57215261    
  -56.5164909      -2.47323704      -20.0000000       1144.40869       1.57215261    
  -57.6058807      -2.18402195      -20.0000000       1144.40869       1.57215261    
  -57.9577713     -0.724482894      -20.0000000       1144.40869       1.57215261    
  -56.5164909      -2.47323704      -20.0000000       1371.64221       1.57229483    
  -56.5223999      -1.11500299      -20.0000000       1371.64221       1.57229483    
  -55.1657600      -1.76926601      -20.0000000       1371.64221       1.57229483    
  -55.4176407      -3.26747894      -20.0000000       1371.64221       1.57229483    
  -54.2450790      -3.94889998      -20.0000000       1777.29004       1.57233322    
  -55.4176407      -3.26747894      -20.0000000       1777.29004       1.57233322    
  -55.1657600      -1.76926601      -20.0000000       1777.29004       1.57233322    
  -53.8819199      -2.32836604      -20.0000000       1777.29004       1.57233322    
  -52.9834785      -4.46340179      -20.0000000       4276.89111       1.57206821    
  -51.6155815      -4.69134283      -20.0000000       4276.89111       1.57206821    
  -51.8049088      -6.24783087      -20.0000000       4276.89111       1.57206821    
  -53.2955093      -6.05576801      -20.0000000       4276.89111       1.57206821    
  -56.3964119      0.254809886      -20.0000000       122.119980       1.57225096    
  -56.5223999      -1.11500299      -20.0000000       122.119980       1.57225096    
  -57.9577713     -0.724482894      -20.0000000       122.119980       1.57225096    
  -57.9511719      0.779103875      -20.0000000       122.119980       1.57225096    
  -53.8819199      -2.32836604      -20.0000000       2188.13452       1.57232273    
  -52.7235603      -2.92538095      -20.0000000       2188.13452       1.57232273    
  -52.9834785      -4.46340179      -20.0000000       2188.13452       1.57232273    
  -54.2450790      -3.94889998      -20.0000000       2188.13452       1.57232273    
  -56.5223999      -1.11500299      -20.0000000       446.639984       1.57236338    
  -56.3964119      0.254809886      -20.0000000       446.639984       1.57236338    
  -54.8835487     -0.325594515      -20.0000000       446.639984       1.57236338    
  -55.1657600      -1.76926601      -20.0000000       446.639984       1.57236338    
  -50.2990494      -6.25000000      -20.0000000       4531.81982       1.57201791    
  -51.8049088      -6.24783087      -20.0000000       4531.81982       1.57201791    
  -51.6155815      -4.69134283      -20.0000000       4531.81982       1.57201791    
  -50.1911316      -4.70199823      -20.0000000       4531.81982       1.57201791    
  -53.8819199      -2.32836604      -20.0000000       756.693054       1.57243192    
  -55.1657600      -1.76926601      -20.0000000       756.693054       1.57243192    
  -54.8835487     -0.325594515      -20.0000000       756.693054       1.57243192    
  -53.3087082     -0.726661325      -20.0000000       756.693054       1.57243192    
  -52.7235603      -2.92538095      -20.0000000       2522.04565       1.57228351    
  -51.4683685      -3.18431592      -20.0000000       2522.04565       1.57228351    
  -51.6155815      -4.69134283      -20.0000000       2522.04565       1.57228351    
  -52.9834785      -4.46340179      -20.0000000       2522.04565       1.57228351    
  -56.1067696       1.60355306      -20.0000000       872.572632      -1.56942809    
  -56.3964119      0.254809886      -20.0000000       872.572632      -1.56942809    
  -57.9511719      0.779103875      -20.0000000       872.572632      -1.56942809    
  -57.5863686       2.23558092      -20.0000000       872.572632      -1.56942809    
  -56.3964119      0.254809886      -20.0000000       397.957977      -1.56920457    
  -56.1067696       1.60355306      -20.0000000       397.957977      -1.56920457    
  -54.6488190       1.11988902      -20.0000000       397.957977      -1.56920457    
  -54.8835487     -0.325594515      -20.0000000       397.957977      -1.56920457    
  -51.8859215      -1.67511594      -20.0000000       1123.33752       1.57243836    
  -52.7235603      -2.92538095      -20.0000000       1123.33752       1.57243836    
  -53.8819199      -2.32836604      -20.0000000       1123.33752       1.57243836    
  -53.3087082     -0.726661325      -20.0000000       1123.33752       1.57243836    
  -48.7928200      -6.25000000      -20.0000000       4673.67334       1.57195497    
  -50.2990494      -6.25000000      -20.0000000       4673.67334       1.57195497    
  -50.1911316      -4.70199823      -20.0000000       4673.67334       1.57195497    
  -48.7387619      -4.69004917      -20.0000000       4673.67334       1.57195497    
  -50.1911316      -4.70199823      -20.0000000       2670.80884       1.57223141    
  -51.6155815      -4.69134283      -20.0000000       2670.80884       1.57223141    
  -51.4683685      -3.18431592      -20.0000000       2670.80884       1.57223141    
  -50.1564102      -3.12996602      -20.0000000       2670.80884       1.57223141    
  -54.6488190       1.11988902      -20.0000000       143.200272      -1.56902385    
  -53.2043991       1.01675200      -20.0000000       143.200272      -1.56902385    
  -53.3087082     -0.726661325      -20.0000000       143.200272      -1.56902385    
  -54.8835487     -0.325594515      -20.0000000       143.200272      -1.56902385    
  -51.4683685      -3.18431592      -20.0000000       1600.90747       1.57238519    
  -52.7235603      -2.92538095      -20.0000000       1600.90747       1.57238519    
  -51.8859215      -1.67511594      -20.0000000       1600.90747       1.57238519    
  -51.8859215      -1.67511594      -20.0000000       1600.90747       1.57238519    
  -55.6295395       2.91055298      -20.0000000       1853.98254      -1.56943858    
  -56.1067696       1.60355306      -20.0000000       1853.98254      -1.56943858    
  -57.5863686       2.23558092      -20.0000000       1853.98254      -1.56943858    
  -56.8836594       3.56473303      -20.0000000       1853.98254      -1.56943858    
  -47.2866096      -6.25000000      -20.0000000       4781.29736       1.57187700    
  -48.7928200      -6.25000000      -20.0000000       4781.29736       1.57187700    
  -48.7387619      -4.69004917      -20.0000000       4781.29736       1.57187700    
  -47.2626686      -4.68801212      -20.0000000       4781.29736       1.57187700    
  -48.7387619      -4.69004917      -20.0000000       2718.06787       1.57216156    
  -50.1911316      -4.70199823      -20.0000000       2718.06787       1.57216156    
  -50.1564102      -3.12996602      -20.0000000       2718.06787       1.57216156    
  -48.7254105      -3.12169194      -20.0000000       2718.06787       1.57216156    
  -50.1564102      -3.12996602      -20.0000000       1475.26819       1.57236814    
  -51.4683685      -3.18431592      -20.0000000       1475.26819       1.57236814    
  -51.8859215      -1.67511594      -20.0000000       1475.26819       1.57236814    
  -50.2854195      -1.59545600      -20.0000000       1475.26819       1.57236814    
  -54.6488190       1.11988902      -20.0000000       1257.64221      -1.56923521    
  -56.1067696       1.60355306      -20.0000000       1257.64221      -1.56923521    
  -55.6295395       2.91055298      -20.0000000       1257.64221      -1.56923521    
  -54.3531990       2.57653904      -20.0000000       1257.64221      -1.56923521    
  -51.7686501     -0.191007897      -20.0000000       512.271973       1.57244921    
  -51.8859215      -1.67511594      -20.0000000       512.271973       1.57244921    
  -53.3087082     -0.726661325      -20.0000000       512.271973       1.57244921    
  -53.3087082     -0.726661325      -20.0000000       512.271973       1.57244921    
  -51.7686501     -0.191007897      -20.0000000       191.009689      -1.56902385    
  -53.3087082     -0.726661325      -20.0000000       191.009689      -1.56902385    
  -53.2043991       1.01675200      -20.0000000       191.009689      -1.56902385    
  -51.7500000       1.29565406      -20.0000000       191.009689      -1.56902385    
  -53.0367393       2.70281792      -20.0000000       1094.32361      -1.56915140    
  -53.2043991       1.01675200      -20.0000000       1094.32361      -1.56915140    
  -54.6488190       1.11988902      -20.0000000       1094.32361      -1.56915140    
  -54.3531990       2.57653904      -20.0000000       1094.32361      -1.56915140    
  -45.7804108      -6.25000000      -20.0000000       4856.34375       1.57178724    
  -47.2866096      -6.25000000      -20.0000000       4856.34375       1.57178724    
  -47.2626686      -4.68801212      -20.0000000       4856.34375       1.57178724    
  -45.7679100      -4.68779421      -20.0000000       4856.34375       1.57178724    
  -47.2626686      -4.68801212      -20.0000000       2777.73071       1.57206333    
  -48.7387619      -4.69004917      -20.0000000       2777.73071       1.57206333    
  -48.7254105      -3.12169194      -20.0000000       2777.73071       1.57206333    
  -47.2550507      -3.12222195      -20.0000000       2777.73071       1.57206333    
  -54.5736809       4.04919481      -20.0000000       2790.78467      -1.56945431    
  -55.6295395       2.91055298      -20.0000000       2790.78467      -1.56945431    
  -56.8836594       3.56473303      -20.0000000       2790.78467      -1.56945431    
  -55.8850899       4.68635893      -20.0000000       2790.78467      -1.56945431    
  -48.7254105      -3.12169194      -20.0000000       1494.94312       1.57228935    
  -50.1564102      -3.12996602      -20.0000000       1494.94312       1.57228935    
  -50.2854195      -1.59545600      -20.0000000       1494.94312       1.57228935    
  -48.7658615      -1.56390297      -20.0000000       1494.94312       1.57228935    
  -50.2854195      -1.59545600      -20.0000000       534.041443       1.57243729    
  -51.8859215      -1.67511594      -20.0000000       534.041443       1.57243729    
  -51.7686501     -0.191007897      -20.0000000       534.041443       1.57243729    
  -50.2816200      -7.23225027E-02  -20.0000000       534.041443       1.57243729    
  -55.6295395       2.91055298      -20.0000000       2043.13184      -1.56929278    
  -54.5736809       4.04919481      -20.0000000       2043.13184      -1.56929278    
  -54.3531990       2.57653904      -20.0000000       2043.13184      -1.56929278    
  -54.3531990       2.57653904      -20.0000000       2043.13184      -1.56929278    
  -51.6464691       2.90894699      -20.0000000       1184.30884      -1.56915176    
  -51.7500000       1.29565406      -20.0000000       1184.30884      -1.56915176    
  -53.2043991       1.01675200      -20.0000000       1184.30884      -1.56915176    
  -53.0367393       2.70281792      -20.0000000       1184.30884      -1.56915176    
  -44.2742119      -6.25000000      -20.0000000       4902.01074       1.57168996    
  -45.7804108      -6.25000000      -20.0000000       4902.01074       1.57168996    
  -45.7679100      -4.68779421      -20.0000000       4902.01074       1.57168996    
  -44.2670212      -4.68766403      -20.0000000       4902.01074       1.57168996    
  -45.7679100      -4.68779421      -20.0000000       2828.24219       1.57194543    
  -47.2626686      -4.68801212      -20.0000000       2828.24219       1.57194543    
  -47.2550507      -3.12222195      -20.0000000       2828.24219       1.57194543    
  -45.7611885      -3.12411094      -20.0000000       2828.24219       1.57194543    
  -51.7500000       1.29565406      -20.0000000       372.519287      -1.56913185    
  -50.2459984       1.47492099      -20.0000000       372.519287      -1.56913185    
  -50.2816200      -7.23225027E-02  -20.0000000       372.519287      -1.56913185    
  -51.7686501     -0.191007897      -20.0000000       372.519287      -1.56913185    
  -47.2550507      -3.12222195      -20.0000000       1526.08252       1.57217824    
  -48.7254105      -3.12169194      -20.0000000       1526.08252       1.57217824    
  -48.7658615      -1.56390297      -20.0000000       1526.08252       1.57217824    
  -47.2643318      -1.55986798      -20.0000000       1526.08252       1.57217824    
  -48.7658615      -1.56390297      -20.0000000       497.756744       1.57235885    
  -50.2854195      -1.59545600      -20.0000000       497.756744       1.57235885    
  -50.2816200      -7.23225027E-02  -20.0000000       497.756744       1.57235885    
  -48.7753716      -1.42937005E-02  -20.0000000       497.756744       1.57235885    
  -54.5736809       4.04919481      -20.0000000       2196.18115      -1.56926978    
  -53.0954399       4.36336088      -20.0000000       2196.18115      -1.56926978    
  -53.0367393       2.70281792      -20.0000000       2196.18115      -1.56926978    
  -54.3531990       2.57653904      -20.0000000       2196.18115      -1.56926978    
  -54.6465797       5.53822613      -20.0000000       3735.24927      -1.56951594    
  -54.5736809       4.04919481      -20.0000000       3735.24927      -1.56951594    
  -55.8850899       4.68635893      -20.0000000       3735.24927      -1.56951594    
  -55.8850899       4.68635893      -20.0000000       3735.24927      -1.56951594    
  -44.2670212      -4.68766403      -20.0000000       4924.45898       1.57159233    
  -42.7620697      -4.68767691      -20.0000000       4924.45898       1.57159233    
  -42.7680206      -6.25000000      -20.0000000       4924.45898       1.57159233    
  -44.2742119      -6.25000000      -20.0000000       4924.45898       1.57159233    
  -44.2670212      -4.68766403      -20.0000000       2863.53125       1.57181585    
  -45.7679100      -4.68779421      -20.0000000       2863.53125       1.57181585    
  -45.7611885      -3.12411094      -20.0000000       2863.53125       1.57181585    
  -44.2611694      -3.12488103      -20.0000000       2863.53125       1.57181585    
  -45.7611885      -3.12411094      -20.0000000       1556.11731       1.57204378    
  -47.2550507      -3.12222195      -20.0000000       1556.11731       1.57204378    
  -47.2643318      -1.55986798      -20.0000000       1556.11731       1.57204378    
  -45.7603798      -1.56126106      -20.0000000       1556.11731       1.57204378    
  -50.2459984       1.47492099      -20.0000000       1342.29089      -1.56920683    
  -51.7500000       1.29565406      -20.0000000       1342.29089      -1.56920683    
  -51.6464691       2.90894699      -20.0000000       1342.29089      -1.56920683    
  -50.2011604       3.04989505      -20.0000000       1342.29089      -1.56920683    
  -54.6465797       5.53822613      -20.0000000       3808.69824      -1.56948102    
  -53.2416306       6.06926107      -20.0000000       3808.69824      -1.56948102    
  -53.0954399       4.36336088      -20.0000000       3808.69824      -1.56948102    
  -54.5736809       4.04919481      -20.0000000       3808.69824      -1.56948102    
  -47.2643318      -1.55986798      -20.0000000       491.721405       1.57223976    
  -48.7658615      -1.56390297      -20.0000000       491.721405       1.57223976    
  -48.7753716      -1.42937005E-02  -20.0000000       491.721405       1.57223976    
  -47.2657204       0.00000000      -20.0000000       491.721405       1.57223976    
  -48.7753716      -1.42937005E-02  -20.0000000       445.556732      -1.56922388    
  -50.2816200      -7.23225027E-02  -20.0000000       445.556732      -1.56922388    
  -50.2459984       1.47492099      -20.0000000       445.556732      -1.56922388    
  -48.7560692       1.53868604      -20.0000000       445.556732      -1.56922388    
  -51.6464691       2.90894699      -20.0000000       2358.13135      -1.56928360    
  -53.0367393       2.70281792      -20.0000000       2358.13135      -1.56928360    
  -53.0954399       4.36336088      -20.0000000       2358.13135      -1.56928360    
  -51.6648903       4.56408405      -20.0000000       2358.13135      -1.56928360    
  -41.2618294      -6.25000000      -20.0000000       4931.89453       1.57149661    
  -42.7680206      -6.25000000      -20.0000000       4931.89453       1.57149661    
  -42.7620697      -4.68767691      -20.0000000       4931.89453       1.57149661    
  -41.2566490      -4.68782711      -20.0000000       4931.89453       1.57149661    
  -44.2611694      -3.12488103      -20.0000000       2884.73877       1.57168579    
  -42.7563400      -3.12513494      -20.0000000       2884.73877       1.57168579    
  -42.7620697      -4.68767691      -20.0000000       2884.73877       1.57168579    
  -44.2670212      -4.68766403      -20.0000000       2884.73877       1.57168579    
  -44.2611694      -3.12488103      -20.0000000       1578.49805       1.57189369    
  -45.7611885      -3.12411094      -20.0000000       1578.49805       1.57189369    
  -45.7603798      -1.56126106      -20.0000000       1578.49805       1.57189369    
  -44.2565308      -1.56226599      -20.0000000       1578.49805       1.57189369    
  -45.7603798      -1.56126106      -20.0000000       498.887207       1.57209480    
  -47.2643318      -1.55986798      -20.0000000       498.887207       1.57209480    
  -47.2657204       0.00000000      -20.0000000       498.887207       1.57209480    
  -45.7582893       0.00000000      -20.0000000       498.887207       1.57209480    
  -47.2657204       0.00000000      -20.0000000       480.949310      -1.56934214    
  -48.7753716      -1.42937005E-02  -20.0000000       480.949310      -1.56934214    
  -48.7560692       1.53868604      -20.0000000       480.949310      -1.56934214    
  -47.2535896       1.55706894      -20.0000000       480.949310      -1.56934214    
  -48.7560692       1.53868604      -20.0000000       1455.11658      -1.56929553    
  -50.2459984       1.47492099      -20.0000000       1455.11658      -1.56929553    
  -50.2011604       3.04989505      -20.0000000       1455.11658      -1.56929553    
  -48.7281189       3.10503101      -20.0000000       1455.11658      -1.56929553    
  -50.2011604       3.04989505      -20.0000000       2540.48511      -1.56934047    
  -51.6464691       2.90894699      -20.0000000       2540.48511      -1.56934047    
  -51.6648903       4.56408405      -20.0000000       2540.48511      -1.56934047    
  -50.2067184       4.64797401      -20.0000000       2540.48511      -1.56934047    
  -51.6648903       4.56408405      -20.0000000       4189.52588      -1.56951392    
  -53.0954399       4.36336088      -20.0000000       4189.52588      -1.56951392    
  -53.2416306       6.06926107      -20.0000000       4189.52588      -1.56951392    
  -51.7500000       6.25000000      -20.0000000       4189.52588      -1.56951392    
  -39.7556496      -6.25000000      -20.0000000       4929.67383       1.57140601    
  -41.2618294      -6.25000000      -20.0000000       4929.67383       1.57140601    
  -41.2566490      -4.68782711      -20.0000000       4929.67383       1.57140601    
  -39.7507591      -4.68851089      -20.0000000       4929.67383       1.57140601    
  -41.2566490      -4.68782711      -20.0000000       2895.59058       1.57156396    
  -42.7620697      -4.68767691      -20.0000000       2895.59058       1.57156396    
  -42.7563400      -3.12513494      -20.0000000       2895.59058       1.57156396    
  -41.2511406      -3.12541890      -20.0000000       2895.59058       1.57156396    
  -44.2565308      -1.56226599      -20.0000000       1592.64905       1.57174194    
  -42.7509499      -1.56253600      -20.0000000       1592.64905       1.57174194    
  -42.7563400      -3.12513494      -20.0000000       1592.64905       1.57174194    
  -44.2611694      -3.12488103      -20.0000000       1592.64905       1.57174194    
  -44.2565308      -1.56226599      -20.0000000       506.576141       1.57193387    
  -45.7603798      -1.56126106      -20.0000000       506.576141       1.57193387    
  -45.7582893       0.00000000      -20.0000000       506.576141       1.57193387    
  -44.2515602       0.00000000      -20.0000000       506.576141       1.57193387    
  -45.7582893       0.00000000      -20.0000000       494.741150      -1.56948328    
  -47.2657204       0.00000000      -20.0000000       494.741150      -1.56948328    
  -47.2535896       1.55706894      -20.0000000       494.741150      -1.56948328    
  -45.7509003       1.56100297      -20.0000000       494.741150      -1.56948328    
  -47.2535896       1.55706894      -20.0000000       1516.13037      -1.56940949    
  -48.7560692       1.53868604      -20.0000000       1516.13037      -1.56940949    
  -48.7281189       3.10503101      -20.0000000       1516.13037      -1.56940949    
  -47.2370110       3.11982203      -20.0000000       1516.13037      -1.56940949    
  -48.7281189       3.10503101      -20.0000000       2679.03052      -1.56942391    
  -50.2011604       3.04989505      -20.0000000       2679.03052      -1.56942391    
  -50.2067184       4.64797401      -20.0000000       2679.03052      -1.56942391    
  -48.7241211       4.67746210      -20.0000000       2679.03052      -1.56942391    
  -50.2067184       4.64797401      -20.0000000       4460.54297      -1.56956708    
  -51.6648903       4.56408405      -20.0000000       4460.54297      -1.56956708    
  -51.7500000       6.25000000      -20.0000000       4460.54297      -1.56956708    
  -50.2455711       6.25000000      -20.0000000       4460.54297      -1.56956708    
  -38.2494698      -6.25000000      -20.0000000       4922.68018       1.57132161    
  -39.7556496      -6.25000000      -20.0000000       4922.68018       1.57132161    
  -39.7507591      -4.68851089      -20.0000000       4922.68018       1.57132161    
  -38.2446404      -4.68936491      -20.0000000       4922.68018       1.57132161    
  -39.7507591      -4.68851089      -20.0000000       2900.18896       1.57145369    
  -41.2566490      -4.68782711      -20.0000000       2900.18896       1.57145369    
  -41.2511406      -3.12541890      -20.0000000       2900.18896       1.57145369    
  -39.7453995      -3.12673903      -20.0000000       2900.18896       1.57145369    
  -41.2511406      -3.12541890      -20.0000000       1601.00037       1.57160139    
  -42.7563400      -3.12513494      -20.0000000       1601.00037       1.57160139    
  -42.7509499      -1.56253600      -20.0000000       1601.00037       1.57160139    
  -41.2455711      -1.56282198      -20.0000000       1601.00037       1.57160139    
  -44.2515602       0.00000000      -20.0000000       511.631989       1.57177031    
  -42.7457504       0.00000000      -20.0000000       511.631989       1.57177031    
  -42.7509499      -1.56253600      -20.0000000       511.631989       1.57177031    
  -44.2565308      -1.56226599      -20.0000000       511.631989       1.57177031    
  -44.2515602       0.00000000      -20.0000000       501.859192      -1.56964290    
  -45.7582893       0.00000000      -20.0000000       501.859192      -1.56964290    
  -45.7509003       1.56100297      -20.0000000       501.859192      -1.56964290    
  -44.2452011       1.56199801      -20.0000000       501.859192      -1.56964290    
  -45.7509003       1.56100297      -20.0000000       1551.03589      -1.56954479    
  -47.2535896       1.55706894      -20.0000000       1551.03589      -1.56954479    
  -47.2370110       3.11982203      -20.0000000       1551.03589      -1.56954479    
  -45.7402802       3.12332392      -20.0000000       1551.03589      -1.56954479    
  -47.2370110       3.11982203      -20.0000000       2767.58301      -1.56952679    
  -48.7281189       3.10503101      -20.0000000       2767.58301      -1.56952679    
  -48.7241211       4.67746210      -20.0000000       2767.58301      -1.56952679    
  -47.2300911       4.68496799      -20.0000000       2767.58301      -1.56952679    
  -48.7241211       4.67746210      -20.0000000       4646.18555      -1.56963503    
  -50.2067184       4.64797401      -20.0000000       4646.18555      -1.56963503    
  -50.2455711       6.25000000      -20.0000000       4646.18555      -1.56963503    
  -48.7411499       6.25000000      -20.0000000       4646.18555      -1.56963503    
  -36.7432899      -6.25000000      -20.0000000       4912.81592       1.57124472    
  -38.2494698      -6.25000000      -20.0000000       4912.81592       1.57124472    
  -38.2446404      -4.68936491      -20.0000000       4912.81592       1.57124472    
  -36.7384796      -4.68897390      -20.0000000       4912.81592       1.57124472    
  -38.2446404      -4.68936491      -20.0000000       2901.46411       1.57135689    
  -39.7507591      -4.68851089      -20.0000000       2901.46411       1.57135689    
  -39.7453995      -3.12673903      -20.0000000       2901.46411       1.57135689    
  -38.2396507      -3.12933803      -20.0000000       2901.46411       1.57135689    
  -39.7453995      -3.12673903      -20.0000000       1605.38135       1.57147717    
  -41.2511406      -3.12541890      -20.0000000       1605.38135       1.57147717    
  -41.2455711      -1.56282198      -20.0000000       1605.38135       1.57147717    
  -39.7399902      -1.56351995      -20.0000000       1605.38135       1.57147717    
  -41.2455711      -1.56282198      -20.0000000       514.659729       1.57161963    
  -42.7509499      -1.56253600      -20.0000000       514.659729       1.57161963    
  -42.7457504       0.00000000      -20.0000000       514.659729       1.57161963    
  -41.2401695       0.00000000      -20.0000000       514.659729       1.57161963    
  -44.2452011       1.56199801      -20.0000000       505.413177      -1.56980574    
  -42.7402611       1.56238496      -20.0000000       505.413177      -1.56980574    
  -42.7457504       0.00000000      -20.0000000       505.413177      -1.56980574    
  -44.2515602       0.00000000      -20.0000000       505.413177      -1.56980574    
  -44.2452011       1.56199801      -20.0000000       1572.32776      -1.56969464    
  -45.7509003       1.56100297      -20.0000000       1572.32776      -1.56969464    
  -45.7402802       3.12332392      -20.0000000       1572.32776      -1.56969464    
  -44.2380295       3.12447906      -20.0000000       1572.32776      -1.56969464    
  -45.7402802       3.12332392      -20.0000000       2822.75757      -1.56964624    
  -47.2370110       3.11982203      -20.0000000       2822.75757      -1.56964624    
  -47.2300911       4.68496799      -20.0000000       2822.75757      -1.56964624    
  -45.7329903       4.68700409      -20.0000000       2822.75757      -1.56964624    
  -47.2300911       4.68496799      -20.0000000       4772.05664      -1.56971526    
  -48.7241211       4.67746210      -20.0000000       4772.05664      -1.56971526    
  -48.7411499       6.25000000      -20.0000000       4772.05664      -1.56971526    
  -47.2367287       6.25000000      -20.0000000       4772.05664      -1.56971526    
  -35.2371101      -6.25000000      -20.0000000       4902.15918       1.57117510    
  -36.7432899      -6.25000000      -20.0000000       4902.15918       1.57117510    
  -36.7384796      -4.68897390      -20.0000000       4902.15918       1.57117510    
  -35.2325211      -4.68835878      -20.0000000       4902.15918       1.57117510    
  -36.7384796      -4.68897390      -20.0000000       2898.98389       1.57127297    
  -38.2446404      -4.68936491      -20.0000000       2898.98389       1.57127297    
  -38.2396507      -3.12933803      -20.0000000       2898.98389       1.57127297    
  -36.7339096      -3.12783909      -20.0000000       2898.98389       1.57127297    
  -38.2396507      -3.12933803      -20.0000000       1607.77283       1.57137179    
  -39.7453995      -3.12673903      -20.0000000       1607.77283       1.57137179    
  -39.7399902      -1.56351995      -20.0000000       1607.77283       1.57137179    
  -38.2346497      -1.56438303      -20.0000000       1607.77283       1.57137179    
  -39.7399902      -1.56351995      -20.0000000       516.581909       1.57148838    
  -41.2455711      -1.56282198      -20.0000000       516.581909       1.57148838    
  -41.2401695       0.00000000      -20.0000000       516.581909       1.57148838    