 VARIABLES="X" "Y" "Z" "abs(p) (Pa)" "angle(p) (rad)"
ZONE N=   3650,E =    3624, F=FEPOINT, ET=QUADRILATERAL
  -56.5164909      -2.47323704      -20.0000000       29489.1309       1.57264185    
  -55.4176407      -3.26747894      -20.0000000       29489.1309       1.57264185    
  -55.9264717      -4.64953518      -20.0000000       29489.1309       1.57264185    
  -56.9148483      -3.51935697      -20.0000000       29489.1309       1.57264185    
  -56.9148483      -3.51935697      -20.0000000       26017.1602       1.57293165    
  -57.6058807      -2.18402195      -20.0000000       26017.1602       1.57293165    
  -56.5164909      -2.47323704      -20.0000000       26017.1602       1.57293165    
  -56.5164909      -2.47323704      -20.0000000       26017.1602       1.57293165    
  -54.6953812      -5.51239681      -20.0000000       31247.3125       1.57249761    
  -55.9264717      -4.64953518      -20.0000000       31247.3125       1.57249761    
  -55.4176407      -3.26747894      -20.0000000       31247.3125       1.57249761    
  -54.2450790      -3.94889998      -20.0000000       31247.3125       1.57249761    
  -54.2450790      -3.94889998      -20.0000000       32294.1367       1.57239795    
  -52.9834785      -4.46340179      -20.0000000       32294.1367       1.57239795    
  -53.2955093      -6.05576801      -20.0000000       32294.1367       1.57239795    
  -54.6953812      -5.51239681      -20.0000000       32294.1367       1.57239795    
  -56.5223999      -1.11500299      -20.0000000       29261.8301       1.57269573    
  -56.5164909      -2.47323704      -20.0000000       29261.8301       1.57269573    
  -57.6058807      -2.18402195      -20.0000000       29261.8301       1.57269573    
  -57.9577713     -0.724482894      -20.0000000       29261.8301       1.57269573    
  -56.5164909      -2.47323704      -20.0000000       37205.7578       1.57224417    
  -56.5223999      -1.11500299      -20.0000000       37205.7578       1.57224417    
  -55.1657600      -1.76926601      -20.0000000       37205.7578       1.57224417    
  -55.4176407      -3.26747894      -20.0000000       37205.7578       1.57224417    
  -54.2450790      -3.94889998      -20.0000000       40646.9219       1.57208693    
  -55.4176407      -3.26747894      -20.0000000       40646.9219       1.57208693    
  -55.1657600      -1.76926601      -20.0000000       40646.9219       1.57208693    
  -53.8819199      -2.32836604      -20.0000000       40646.9219       1.57208693    
  -52.9834785      -4.46340179      -20.0000000       33260.3711       1.57230639    
  -51.6155815      -4.69134283      -20.0000000       33260.3711       1.57230639    
  -51.8049088      -6.24783087      -20.0000000       33260.3711       1.57230639    
  -53.2955093      -6.05576801      -20.0000000       33260.3711       1.57230639    
  -56.3964119      0.254809886      -20.0000000       30707.6797       1.57260680    
  -56.5223999      -1.11500299      -20.0000000       30707.6797       1.57260680    
  -57.9577713     -0.724482894      -20.0000000       30707.6797       1.57260680    
  -57.9511719      0.779103875      -20.0000000       30707.6797       1.57260680    
  -53.8819199      -2.32836604      -20.0000000       42217.8125       1.57200789    
  -52.7235603      -2.92538095      -20.0000000       42217.8125       1.57200789    
  -52.9834785      -4.46340179      -20.0000000       42217.8125       1.57200789    
  -54.2450790      -3.94889998      -20.0000000       42217.8125       1.57200789    
  -56.5223999      -1.11500299      -20.0000000       40383.6367       1.57212389    
  -56.3964119      0.254809886      -20.0000000       40383.6367       1.57212389    
  -54.8835487     -0.325594515      -20.0000000       40383.6367       1.57212389    
  -55.1657600      -1.76926601      -20.0000000       40383.6367       1.57212389    
  -50.2990494      -6.25000000      -20.0000000       34399.4180       1.57221091    
  -51.8049088      -6.24783087      -20.0000000       34399.4180       1.57221091    
  -51.6155815      -4.69134283      -20.0000000       34399.4180       1.57221091    
  -50.1911316      -4.70199823      -20.0000000       34399.4180       1.57221091    
  -53.8819199      -2.32836604      -20.0000000       45242.0000       1.57194471    
  -55.1657600      -1.76926601      -20.0000000       45242.0000       1.57194471    
  -54.8835487     -0.325594515      -20.0000000       45242.0000       1.57194471    
  -53.3087082     -0.726661325      -20.0000000       45242.0000       1.57194471    
  -52.7235603      -2.92538095      -20.0000000       43140.7617       1.57195079    
  -51.4683685      -3.18431592      -20.0000000       43140.7617       1.57195079    
  -51.6155815      -4.69134283      -20.0000000       43140.7617       1.57195079    
  -52.9834785      -4.46340179      -20.0000000       43140.7617       1.57195079    
  -56.1067696       1.60355306      -20.0000000       31188.6484       1.57257128    
  -56.3964119      0.254809886      -20.0000000       31188.6484       1.57257128    
  -57.9511719      0.779103875      -20.0000000       31188.6484       1.57257128    
  -57.5863686       2.23558092      -20.0000000       31188.6484       1.57257128    
  -56.3964119      0.254809886      -20.0000000       41444.5547       1.57208359    
  -56.1067696       1.60355306      -20.0000000       41444.5547       1.57208359    
  -54.6488190       1.11988902      -20.0000000       41444.5547       1.57208359    
  -54.8835487     -0.325594515      -20.0000000       41444.5547       1.57208359    
  -51.8859215      -1.67511594      -20.0000000       47527.9922       1.57185900    
  -52.7235603      -2.92538095      -20.0000000       47527.9922       1.57185900    
  -53.8819199      -2.32836604      -20.0000000       47527.9922       1.57185900    
  -53.3087082     -0.726661325      -20.0000000       47527.9922       1.57185900    
  -48.7928200      -6.25000000      -20.0000000       35219.4609       1.57213461    
  -50.2990494      -6.25000000      -20.0000000       35219.4609       1.57213461    
  -50.1911316      -4.70199823      -20.0000000       35219.4609       1.57213461    
  -48.7387619      -4.69004917      -20.0000000       35219.4609       1.57213461    
  -50.1911316      -4.70199823      -20.0000000       44229.7578       1.57189071    
  -51.6155815      -4.69134283      -20.0000000       44229.7578       1.57189071    
  -51.4683685      -3.18431592      -20.0000000       44229.7578       1.57189071    
  -50.1564102      -3.12996602      -20.0000000       44229.7578       1.57189071    
  -54.6488190       1.11988902      -20.0000000       46810.6250       1.57189906    
  -53.2043991       1.01675200      -20.0000000       46810.6250       1.57189906    
  -53.3087082     -0.726661325      -20.0000000       46810.6250       1.57189906    
  -54.8835487     -0.325594515      -20.0000000       46810.6250       1.57189906    
  -51.4683685      -3.18431592      -20.0000000       47484.7852       1.57184064    
  -52.7235603      -2.92538095      -20.0000000       47484.7852       1.57184064    
  -51.8859215      -1.67511594      -20.0000000       47484.7852       1.57184064    
  -51.8859215      -1.67511594      -20.0000000       47484.7852       1.57184064    
  -55.6295395       2.91055298      -20.0000000       30869.7539       1.57257307    
  -56.1067696       1.60355306      -20.0000000       30869.7539       1.57257307    
  -57.5863686       2.23558092      -20.0000000       30869.7539       1.57257307    
  -56.8836594       3.56473303      -20.0000000       30869.7539       1.57257307    
  -47.2866096      -6.25000000      -20.0000000       35432.0977       1.57208407    
  -48.7928200      -6.25000000      -20.0000000       35432.0977       1.57208407    
  -48.7387619      -4.69004917      -20.0000000       35432.0977       1.57208407    
  -47.2626686      -4.68801212      -20.0000000       35432.0977       1.57208407    
  -48.7387619      -4.69004917      -20.0000000       45095.7305       1.57183790    
  -50.1911316      -4.70199823      -20.0000000       45095.7305       1.57183790    
  -50.1564102      -3.12996602      -20.0000000       45095.7305       1.57183790    
  -48.7254105      -3.12169194      -20.0000000       45095.7305       1.57183790    
  -50.1564102      -3.12996602      -20.0000000       49186.1562       1.57178104    
  -51.4683685      -3.18431592      -20.0000000       49186.1562       1.57178104    
  -51.8859215      -1.67511594      -20.0000000       49186.1562       1.57178104    
  -50.2854195      -1.59545600      -20.0000000       49186.1562       1.57178104    
  -54.6488190       1.11988902      -20.0000000       40751.0195       1.57209694    
  -56.1067696       1.60355306      -20.0000000       40751.0195       1.57209694    
  -55.6295395       2.91055298      -20.0000000       40751.0195       1.57209694    
  -54.3531990       2.57653904      -20.0000000       40751.0195       1.57209694    
  -51.7686501     -0.191007897      -20.0000000       49872.6680       1.57179534    
  -51.8859215      -1.67511594      -20.0000000       49872.6680       1.57179534    
  -53.3087082     -0.726661325      -20.0000000       49872.6680       1.57179534    
  -53.3087082     -0.726661325      -20.0000000       49872.6680       1.57179534    
  -51.7686501     -0.191007897      -20.0000000       49838.3828       1.57180071    
  -53.3087082     -0.726661325      -20.0000000       49838.3828       1.57180071    
  -53.2043991       1.01675200      -20.0000000       49838.3828       1.57180071    
  -51.7500000       1.29565406      -20.0000000       49838.3828       1.57180071    
  -53.0367393       2.70281792      -20.0000000       45702.4102       1.57192159    
  -53.2043991       1.01675200      -20.0000000       45702.4102       1.57192159    
  -54.6488190       1.11988902      -20.0000000       45702.4102       1.57192159    
  -54.3531990       2.57653904      -20.0000000       45702.4102       1.57192159    
  -45.7804108      -6.25000000      -20.0000000       35217.2852       1.57205033    
  -47.2866096      -6.25000000      -20.0000000       35217.2852       1.57205033    
  -47.2626686      -4.68801212      -20.0000000       35217.2852       1.57205033    
  -45.7679100      -4.68779421      -20.0000000       35217.2852       1.57205033    
  -47.2626686      -4.68801212      -20.0000000       45285.2969       1.57180095    
  -48.7387619      -4.69004917      -20.0000000       45285.2969       1.57180095    
  -48.7254105      -3.12169194      -20.0000000       45285.2969       1.57180095    
  -47.2550507      -3.12222195      -20.0000000       45285.2969       1.57180095    
  -54.5736809       4.04919481      -20.0000000       30712.1855       1.57255220    
  -55.6295395       2.91055298      -20.0000000       30712.1855       1.57255220    
  -56.8836594       3.56473303      -20.0000000       30712.1855       1.57255220    
  -55.8850899       4.68635893      -20.0000000       30712.1855       1.57255220    
  -48.7254105      -3.12169194      -20.0000000       50075.0781       1.57173347    
  -50.1564102      -3.12996602      -20.0000000       50075.0781       1.57173347    
  -50.2854195      -1.59545600      -20.0000000       50075.0781       1.57173347    
  -48.7658615      -1.56390297      -20.0000000       50075.0781       1.57173347    
  -50.2854195      -1.59545600      -20.0000000       51318.6289       1.57174146    
  -51.8859215      -1.67511594      -20.0000000       51318.6289       1.57174146    
  -51.7686501     -0.191007897      -20.0000000       51318.6289       1.57174146    
  -50.2816200      -7.23225027E-02  -20.0000000       51318.6289       1.57174146    
  -55.6295395       2.91055298      -20.0000000       38678.7148       1.57215893    
  -54.5736809       4.04919481      -20.0000000       38678.7148       1.57215893    
  -54.3531990       2.57653904      -20.0000000       38678.7148       1.57215893    
  -54.3531990       2.57653904      -20.0000000       38678.7148       1.57215893    
  -51.6464691       2.90894699      -20.0000000       48259.2773       1.57183123    
  -51.7500000       1.29565406      -20.0000000       48259.2773       1.57183123    
  -53.2043991       1.01675200      -20.0000000       48259.2773       1.57183123    
  -53.0367393       2.70281792      -20.0000000       48259.2773       1.57183123    
  -44.2742119      -6.25000000      -20.0000000       34717.7031       1.57202613    
  -45.7804108      -6.25000000      -20.0000000       34717.7031       1.57202613    
  -45.7679100      -4.68779421      -20.0000000       34717.7031       1.57202613    
  -44.2670212      -4.68766403      -20.0000000       34717.7031       1.57202613    
  -45.7679100      -4.68779421      -20.0000000       45003.7031       1.57177436    
  -47.2626686      -4.68801212      -20.0000000       45003.7031       1.57177436    
  -47.2550507      -3.12222195      -20.0000000       45003.7031       1.57177436    
  -45.7611885      -3.12411094      -20.0000000       45003.7031       1.57177436    
  -51.7500000       1.29565406      -20.0000000       51540.8164       1.57173657    
  -50.2459984       1.47492099      -20.0000000       51540.8164       1.57173657    
  -50.2816200      -7.23225027E-02  -20.0000000       51540.8164       1.57173657    
  -51.7686501     -0.191007897      -20.0000000       51540.8164       1.57173657    
  -47.2550507      -3.12222195      -20.0000000       50268.4102       1.57170033    
  -48.7254105      -3.12169194      -20.0000000       50268.4102       1.57170033    
  -48.7658615      -1.56390297      -20.0000000       50268.4102       1.57170033    
  -47.2643318      -1.55986798      -20.0000000       50268.4102       1.57170033    
  -48.7658615      -1.56390297      -20.0000000       52278.4570       1.57169402    
  -50.2854195      -1.59545600      -20.0000000       52278.4570       1.57169402    
  -50.2816200      -7.23225027E-02  -20.0000000       52278.4570       1.57169402    
  -48.7753716      -1.42937005E-02  -20.0000000       52278.4570       1.57169402    
  -54.5736809       4.04919481      -20.0000000       41377.3438       1.57204020    
  -53.0954399       4.36336088      -20.0000000       41377.3438       1.57204020    
  -53.0367393       2.70281792      -20.0000000       41377.3438       1.57204020    
  -54.3531990       2.57653904      -20.0000000       41377.3438       1.57204020    
  -54.6465797       5.53822613      -20.0000000       28234.7246       1.57267988    
  -54.5736809       4.04919481      -20.0000000       28234.7246       1.57267988    
  -55.8850899       4.68635893      -20.0000000       28234.7246       1.57267988    
  -55.8850899       4.68635893      -20.0000000       28234.7246       1.57267988    
  -44.2670212      -4.68766403      -20.0000000       34013.5508       1.57200849    
  -42.7620697      -4.68767691      -20.0000000       34013.5508       1.57200849    
  -42.7680206      -6.25000000      -20.0000000       34013.5508       1.57200849    
  -44.2742119      -6.25000000      -20.0000000       34013.5508       1.57200849    
  -44.2670212      -4.68766403      -20.0000000       44388.7031       1.57175541    
  -45.7679100      -4.68779421      -20.0000000       44388.7031       1.57175541    
  -45.7611885      -3.12411094      -20.0000000       44388.7031       1.57175541    
  -44.2611694      -3.12488103      -20.0000000       44388.7031       1.57175541    
  -45.7611885      -3.12411094      -20.0000000       49965.6914       1.57167649    
  -47.2550507      -3.12222195      -20.0000000       49965.6914       1.57167649    
  -47.2643318      -1.55986798      -20.0000000       49965.6914       1.57167649    
  -45.7603798      -1.56126106      -20.0000000       49965.6914       1.57167649    
  -50.2459984       1.47492099      -20.0000000       49585.7578       1.57177341    
  -51.7500000       1.29565406      -20.0000000       49585.7578       1.57177341    
  -51.6464691       2.90894699      -20.0000000       49585.7578       1.57177341    
  -50.2011604       3.04989505      -20.0000000       49585.7578       1.57177341    
  -54.6465797       5.53822613      -20.0000000       32117.2227       1.57240891    
  -53.2416306       6.06926107      -20.0000000       32117.2227       1.57240891    
  -53.0954399       4.36336088      -20.0000000       32117.2227       1.57240891    
  -54.5736809       4.04919481      -20.0000000       32117.2227       1.57240891    
  -47.2643318      -1.55986798      -20.0000000       52497.9609       1.57166183    
  -48.7658615      -1.56390297      -20.0000000       52497.9609       1.57166183    
  -48.7753716      -1.42937005E-02  -20.0000000       52497.9609       1.57166183    
  -47.2657204       0.00000000      -20.0000000       52497.9609       1.57166183    
  -48.7753716      -1.42937005E-02  -20.0000000       52338.9336       1.57169306    
  -50.2816200      -7.23225027E-02  -20.0000000       52338.9336       1.57169306    
  -50.2459984       1.47492099      -20.0000000       52338.9336       1.57169306    
  -48.7560692       1.53868604      -20.0000000       52338.9336       1.57169306    
  -51.6464691       2.90894699      -20.0000000       43638.7188       1.57194078    
  -53.0367393       2.70281792      -20.0000000       43638.7188       1.57194078    
  -53.0954399       4.36336088      -20.0000000       43638.7188       1.57194078    
  -51.6648903       4.56408405      -20.0000000       43638.7188       1.57194078    
  -41.2618294      -6.25000000      -20.0000000       33156.1523       1.57199657    
  -42.7680206      -6.25000000      -20.0000000       33156.1523       1.57199657    
  -42.7620697      -4.68767691      -20.0000000       33156.1523       1.57199657    
  -41.2566490      -4.68782711      -20.0000000       33156.1523       1.57199657    
  -44.2611694      -3.12488103      -20.0000000       43528.8008       1.57174110    
  -42.7563400      -3.12513494      -20.0000000       43528.8008       1.57174110    
  -42.7620697      -4.68767691      -20.0000000       43528.8008       1.57174110    
  -44.2670212      -4.68766403      -20.0000000       43528.8008       1.57174110    
  -44.2611694      -3.12488103      -20.0000000       49303.0312       1.57165897    
  -45.7611885      -3.12411094      -20.0000000       49303.0312       1.57165897    
  -45.7603798      -1.56126106      -20.0000000       49303.0312       1.57165897    
  -44.2565308      -1.56226599      -20.0000000       49303.0312       1.57165897    
  -45.7603798      -1.56126106      -20.0000000       52195.8242       1.57163858    
  -47.2643318      -1.55986798      -20.0000000       52195.8242       1.57163858    
  -47.2657204       0.00000000      -20.0000000       52195.8242       1.57163858    
  -45.7582893       0.00000000      -20.0000000       52195.8242       1.57163858    
  -47.2657204       0.00000000      -20.0000000       52507.6562       1.57166147    
  -48.7753716      -1.42937005E-02  -20.0000000       52507.6562       1.57166147    
  -48.7560692       1.53868604      -20.0000000       52507.6562       1.57166147    
  -47.2535896       1.55706894      -20.0000000       52507.6562       1.57166147    
  -48.7560692       1.53868604      -20.0000000       50187.9844       1.57173133    
  -50.2459984       1.47492099      -20.0000000       50187.9844       1.57173133    
  -50.2011604       3.04989505      -20.0000000       50187.9844       1.57173133    
  -48.7281189       3.10503101      -20.0000000       50187.9844       1.57173133    
  -50.2011604       3.04989505      -20.0000000       44755.5938       1.57187939    
  -51.6464691       2.90894699      -20.0000000       44755.5938       1.57187939    
  -51.6648903       4.56408405      -20.0000000       44755.5938       1.57187939    
  -50.2067184       4.64797401      -20.0000000       44755.5938       1.57187939    
  -51.6648903       4.56408405      -20.0000000       33706.3438       1.57228577    
  -53.0954399       4.36336088      -20.0000000       33706.3438       1.57228577    
  -53.2416306       6.06926107      -20.0000000       33706.3438       1.57228577    
  -51.7500000       6.25000000      -20.0000000       33706.3438       1.57228577    
  -39.7556496      -6.25000000      -20.0000000       32189.9453       1.57198787    
  -41.2618294      -6.25000000      -20.0000000       32189.9453       1.57198787    
  -41.2566490      -4.68782711      -20.0000000       32189.9453       1.57198787    
  -39.7507591      -4.68851089      -20.0000000       32189.9453       1.57198787    
  -41.2566490      -4.68782711      -20.0000000       42482.9375       1.57173073    
  -42.7620697      -4.68767691      -20.0000000       42482.9375       1.57173073    
  -42.7563400      -3.12513494      -20.0000000       42482.9375       1.57173073    
  -41.2511406      -3.12541890      -20.0000000       42482.9375       1.57173073    
  -44.2565308      -1.56226599      -20.0000000       48369.4219       1.57164574    
  -42.7509499      -1.56253600      -20.0000000       48369.4219       1.57164574    
  -42.7563400      -3.12513494      -20.0000000       48369.4219       1.57164574    
  -44.2611694      -3.12488103      -20.0000000       48369.4219       1.57164574    
  -44.2565308      -1.56226599      -20.0000000       51515.6797       1.57162106    
  -45.7603798      -1.56126106      -20.0000000       51515.6797       1.57162106    
  -45.7582893       0.00000000      -20.0000000       51515.6797       1.57162106    
  -44.2515602       0.00000000      -20.0000000       51515.6797       1.57162106    
  -45.7582893       0.00000000      -20.0000000       52192.7891       1.57163799    
  -47.2657204       0.00000000      -20.0000000       52192.7891       1.57163799    
  -47.2535896       1.55706894      -20.0000000       52192.7891       1.57163799    
  -45.7509003       1.56100297      -20.0000000       52192.7891       1.57163799    
  -47.2535896       1.55706894      -20.0000000       50281.3320       1.57169974    
  -48.7560692       1.53868604      -20.0000000       50281.3320       1.57169974    
  -48.7281189       3.10503101      -20.0000000       50281.3320       1.57169974    
  -47.2370110       3.11982203      -20.0000000       50281.3320       1.57169974    
  -48.7281189       3.10503101      -20.0000000       45252.1719       1.57183421    
  -50.2011604       3.04989505      -20.0000000       45252.1719       1.57183421    
  -50.2067184       4.64797401      -20.0000000       45252.1719       1.57183421    
  -48.7241211       4.67746210      -20.0000000       45252.1719       1.57183421    
  -50.2067184       4.64797401      -20.0000000       34790.6016       1.57219422    
  -51.6648903       4.56408405      -20.0000000       34790.6016       1.57219422    
  -51.7500000       6.25000000      -20.0000000       34790.6016       1.57219422    
  -50.2455711       6.25000000      -20.0000000       34790.6016       1.57219422    
  -38.2494698      -6.25000000      -20.0000000       31140.2363       1.57198226    
  -39.7556496      -6.25000000      -20.0000000       31140.2363       1.57198226    
  -39.7507591      -4.68851089      -20.0000000       31140.2363       1.57198226    
  -38.2446404      -4.68936491      -20.0000000       31140.2363       1.57198226    
  -39.7507591      -4.68851089      -20.0000000       41295.1484       1.57172322    
  -41.2566490      -4.68782711      -20.0000000       41295.1484       1.57172322    
  -41.2511406      -3.12541890      -20.0000000       41295.1484       1.57172322    
  -39.7453995      -3.12673903      -20.0000000       41295.1484       1.57172322    
  -41.2511406      -3.12541890      -20.0000000       47233.9453       1.57163537    
  -42.7563400      -3.12513494      -20.0000000       47233.9453       1.57163537    
  -42.7509499      -1.56253600      -20.0000000       47233.9453       1.57163537    
  -41.2455711      -1.56282198      -20.0000000       47233.9453       1.57163537    
  -44.2515602       0.00000000      -20.0000000       50553.7891       1.57160842    
  -42.7457504       0.00000000      -20.0000000       50553.7891       1.57160842    
  -42.7509499      -1.56253600      -20.0000000       50553.7891       1.57160842    
  -44.2565308      -1.56226599      -20.0000000       50553.7891       1.57160842    
  -44.2515602       0.00000000      -20.0000000       51511.6328       1.57162106    
  -45.7582893       0.00000000      -20.0000000       51511.6328       1.57162106    
  -45.7509003       1.56100297      -20.0000000       51511.6328       1.57162106    
  -44.2452011       1.56199801      -20.0000000       51511.6328       1.57162106    
  -45.7509003       1.56100297      -20.0000000       49952.4492       1.57167637    
  -47.2535896       1.55706894      -20.0000000       49952.4492       1.57167637    
  -47.2370110       3.11982203      -20.0000000       49952.4492       1.57167637    
  -45.7402802       3.12332392      -20.0000000       49952.4492       1.57167637    
  -47.2370110       3.11982203      -20.0000000       45307.2383       1.57179987    
  -48.7281189       3.10503101      -20.0000000       45307.2383       1.57179987    
  -48.7241211       4.67746210      -20.0000000       45307.2383       1.57179987    
  -47.2300911       4.68496799      -20.0000000       45307.2383       1.57179987    
  -48.7241211       4.67746210      -20.0000000       35366.3438       1.57212794    
  -50.2067184       4.64797401      -20.0000000       35366.3438       1.57212794    
  -50.2455711       6.25000000      -20.0000000       35366.3438       1.57212794    
  -48.7411499       6.25000000      -20.0000000       35366.3438       1.57212794    
  -36.7432899      -6.25000000      -20.0000000       30027.7988       1.57197976    
  -38.2494698      -6.25000000      -20.0000000       30027.7988       1.57197976    
  -38.2446404      -4.68936491      -20.0000000       30027.7988       1.57197976    
  -36.7384796      -4.68897390      -20.0000000       30027.7988       1.57197976    
  -38.2446404      -4.68936491      -20.0000000       40001.2656       1.57171774    
  -39.7507591      -4.68851089      -20.0000000       40001.2656       1.57171774    
  -39.7453995      -3.12673903      -20.0000000       40001.2656       1.57171774    
  -38.2396507      -3.12933803      -20.0000000       40001.2656       1.57171774    
  -39.7453995      -3.12673903      -20.0000000       45940.8477       1.57162786    
  -41.2511406      -3.12541890      -20.0000000       45940.8477       1.57162786    
  -41.2455711      -1.56282198      -20.0000000       45940.8477       1.57162786    
  -39.7399902      -1.56351995      -20.0000000       45940.8477       1.57162786    
  -41.2455711      -1.56282198      -20.0000000       49380.6016       1.57159841    
  -42.7509499      -1.56253600      -20.0000000       49380.6016       1.57159841    
  -42.7457504       0.00000000      -20.0000000       49380.6016       1.57159841    
  -41.2401695       0.00000000      -20.0000000       49380.6016       1.57159841    
  -44.2452011       1.56199801      -20.0000000       50546.7109       1.57160842    
  -42.7402611       1.56238496      -20.0000000       50546.7109       1.57160842    
  -42.7457504       0.00000000      -20.0000000       50546.7109       1.57160842    
  -44.2515602       0.00000000      -20.0000000       50546.7109       1.57160842    
  -44.2452011       1.56199801      -20.0000000       49283.8047       1.57165861    
  -45.7509003       1.56100297      -20.0000000       49283.8047       1.57165861    
  -45.7402802       3.12332392      -20.0000000       49283.8047       1.57165861    
  -44.2380295       3.12447906      -20.0000000       49283.8047       1.57165861    
  -45.7402802       3.12332392      -20.0000000       44990.9609       1.57177401    
  -47.2370110       3.11982203      -20.0000000       44990.9609       1.57177401    
  -47.2300911       4.68496799      -20.0000000       44990.9609       1.57177401    
  -45.7329903       4.68700409      -20.0000000       44990.9609       1.57177401    
  -47.2300911       4.68496799      -20.0000000       35454.4727       1.57208157    
  -48.7241211       4.67746210      -20.0000000       35454.4727       1.57208157    
  -48.7411499       6.25000000      -20.0000000       35454.4727       1.57208157    
  -47.2367287       6.25000000      -20.0000000       35454.4727       1.57208157    
  -35.2371101      -6.25000000      -20.0000000       28872.9883       1.57197833    
  -36.7432899      -6.25000000      -20.0000000       28872.9883       1.57197833    
  -36.7384796      -4.68897390      -20.0000000       28872.9883       1.57197833    
  -35.2325211      -4.68835878      -20.0000000       28872.9883       1.57197833    
  -36.7384796      -4.68897390      -20.0000000       38625.9805       1.57171369    
  -38.2446404      -4.68936491      -20.0000000       38625.9805       1.57171369    
  -38.2396507      -3.12933803      -20.0000000       38625.9805       1.57171369    
  -36.7339096      -3.12783909      -20.0000000       38625.9805       1.57171369    
  -38.2396507      -3.12933803      -20.0000000       44529.4297       1.57162237    
  -39.7453995      -3.12673903      -20.0000000       44529.4297       1.57162237    
  -39.7399902      -1.56351995      -20.0000000       44529.4297       1.57162237    
  -38.2346497      -1.56438303      -20.0000000       44529.4297       1.57162237    
  -39.7399902      -1.56351995      -20.0000000       48037.0859       1.57159138    
  -41.2455711      -1.56282198      -20.0000000       48037.0859       1.57159138    
  -41.2401695       0.00000000      -20.0000000       48037.0859       1.57159138    