 VARIABLES="X" "Y" "Z" "abs(p) (Pa)" "angle(p) (rad)"
ZONE N=   3650,E =    3624, F=FEPOINT, ET=QUADRILATERAL
  -56.5164909      -2.47323704      -20.0000000       149212.266      -1.57085061    
  -55.4176407      -3.26747894      -20.0000000       149212.266      -1.57085061    
  -55.9264717      -4.64953518      -20.0000000       149212.266      -1.57085061    
  -56.9148483      -3.51935697      -20.0000000       149212.266      -1.57085061    
  -56.9148483      -3.51935697      -20.0000000       121771.297      -1.57084465    
  -57.6058807      -2.18402195      -20.0000000       121771.297      -1.57084465    
  -56.5164909      -2.47323704      -20.0000000       121771.297      -1.57084465    
  -56.5164909      -2.47323704      -20.0000000       121771.297      -1.57084465    
  -54.6953812      -5.51239681      -20.0000000       185871.234      -1.57085955    
  -55.9264717      -4.64953518      -20.0000000       185871.234      -1.57085955    
  -55.4176407      -3.26747894      -20.0000000       185871.234      -1.57085955    
  -54.2450790      -3.94889998      -20.0000000       185871.234      -1.57085955    
  -54.2450790      -3.94889998      -20.0000000       217498.562      -1.57086968    
  -52.9834785      -4.46340179      -20.0000000       217498.562      -1.57086968    
  -53.2955093      -6.05576801      -20.0000000       217498.562      -1.57086968    
  -54.6953812      -5.51239681      -20.0000000       217498.562      -1.57086968    
  -56.5223999      -1.11500299      -20.0000000       66090.7344      -1.57084119    
  -56.5164909      -2.47323704      -20.0000000       66090.7344      -1.57084119    
  -57.6058807      -2.18402195      -20.0000000       66090.7344      -1.57084119    
  -57.9577713     -0.724482894      -20.0000000       66090.7344      -1.57084119    
  -56.5164909      -2.47323704      -20.0000000       78277.3594      -1.57085121    
  -56.5223999      -1.11500299      -20.0000000       78277.3594      -1.57085121    
  -55.1657600      -1.76926601      -20.0000000       78277.3594      -1.57085121    
  -55.4176407      -3.26747894      -20.0000000       78277.3594      -1.57085121    
  -54.2450790      -3.94889998      -20.0000000       100469.711      -1.57086611    
  -55.4176407      -3.26747894      -20.0000000       100469.711      -1.57086611    
  -55.1657600      -1.76926601      -20.0000000       100469.711      -1.57086611    
  -53.8819199      -2.32836604      -20.0000000       100469.711      -1.57086611    
  -52.9834785      -4.46340179      -20.0000000       240105.375      -1.57087994    
  -51.6155815      -4.69134283      -20.0000000       240105.375      -1.57087994    
  -51.8049088      -6.24783087      -20.0000000       240105.375      -1.57087994    
  -53.2955093      -6.05576801      -20.0000000       240105.375      -1.57087994    
  -56.3964119      0.254809886      -20.0000000       6997.27881      -1.57083678    
  -56.5223999      -1.11500299      -20.0000000       6997.27881      -1.57083678    
  -57.9577713     -0.724482894      -20.0000000       6997.27881      -1.57083678    
  -57.9511719      0.779103875      -20.0000000       6997.27881      -1.57083678    
  -53.8819199      -2.32836604      -20.0000000       122543.984      -1.57088161    
  -52.7235603      -2.92538095      -20.0000000       122543.984      -1.57088161    
  -52.9834785      -4.46340179      -20.0000000       122543.984      -1.57088161    
  -54.2450790      -3.94889998      -20.0000000       122543.984      -1.57088161    
  -56.5223999      -1.11500299      -20.0000000       25374.9629      -1.57085097    
  -56.3964119      0.254809886      -20.0000000       25374.9629      -1.57085097    
  -54.8835487     -0.325594515      -20.0000000       25374.9629      -1.57085097    
  -55.1657600      -1.76926601      -20.0000000       25374.9629      -1.57085097    
  -50.2990494      -6.25000000      -20.0000000       250719.031      -1.57088983    
  -51.8049088      -6.24783087      -20.0000000       250719.031      -1.57088983    
  -51.6155815      -4.69134283      -20.0000000       250719.031      -1.57088983    
  -50.1911316      -4.70199823      -20.0000000       250719.031      -1.57088983    
  -53.8819199      -2.32836604      -20.0000000       42467.2422      -1.57087207    
  -55.1657600      -1.76926601      -20.0000000       42467.2422      -1.57087207    
  -54.8835487     -0.325594515      -20.0000000       42467.2422      -1.57087207    
  -53.3087082     -0.726661325      -20.0000000       42467.2422      -1.57087207    
  -52.7235603      -2.92538095      -20.0000000       139692.609      -1.57089651    
  -51.4683685      -3.18431592      -20.0000000       139692.609      -1.57089651    
  -51.6155815      -4.69134283      -20.0000000       139692.609      -1.57089651    
  -52.9834785      -4.46340179      -20.0000000       139692.609      -1.57089651    
  -56.1067696       1.60355306      -20.0000000       50407.6797       1.57075191    
  -56.3964119      0.254809886      -20.0000000       50407.6797       1.57075191    
  -57.9511719      0.779103875      -20.0000000       50407.6797       1.57075191    
  -57.5863686       2.23558092      -20.0000000       50407.6797       1.57075191    
  -56.3964119      0.254809886      -20.0000000       22638.4961       1.57073891    
  -56.1067696       1.60355306      -20.0000000       22638.4961       1.57073891    
  -54.6488190       1.11988902      -20.0000000       22638.4961       1.57073891    
  -54.8835487     -0.325594515      -20.0000000       22638.4961       1.57073891    
  -51.8859215      -1.67511594      -20.0000000       62287.3320      -1.57089388    
  -52.7235603      -2.92538095      -20.0000000       62287.3320      -1.57089388    
  -53.8819199      -2.32836604      -20.0000000       62287.3320      -1.57089388    
  -53.3087082     -0.726661325      -20.0000000       62287.3320      -1.57089388    
  -48.7928200      -6.25000000      -20.0000000       253864.484      -1.57089794    
  -50.2990494      -6.25000000      -20.0000000       253864.484      -1.57089794    
  -50.1911316      -4.70199823      -20.0000000       253864.484      -1.57089794    
  -48.7387619      -4.69004917      -20.0000000       253864.484      -1.57089794    
  -50.1911316      -4.70199823      -20.0000000       145838.719      -1.57091022    
  -51.6155815      -4.69134283      -20.0000000       145838.719      -1.57091022    
  -51.4683685      -3.18431592      -20.0000000       145838.719      -1.57091022    
  -50.1564102      -3.12996602      -20.0000000       145838.719      -1.57091022    
  -54.6488190       1.11988902      -20.0000000       8040.36377       1.57071853    
  -53.2043991       1.01675200      -20.0000000       8040.36377       1.57071853    
  -53.3087082     -0.726661325      -20.0000000       8040.36377       1.57071853    
  -54.8835487     -0.325594515      -20.0000000       8040.36377       1.57071853    
  -51.4683685      -3.18431592      -20.0000000       88086.4062      -1.57090676    
  -52.7235603      -2.92538095      -20.0000000       88086.4062      -1.57090676    
  -51.8859215      -1.67511594      -20.0000000       88086.4062      -1.57090676    
  -51.8859215      -1.67511594      -20.0000000       88086.4062      -1.57090676    
  -55.6295395       2.91055298      -20.0000000       106864.523       1.57074690    
  -56.1067696       1.60355306      -20.0000000       106864.523       1.57074690    
  -57.5863686       2.23558092      -20.0000000       106864.523       1.57074690    
  -56.8836594       3.56473303      -20.0000000       106864.523       1.57074690    
  -47.2866096      -6.25000000      -20.0000000       254236.688      -1.57090271    
  -48.7928200      -6.25000000      -20.0000000       254236.688      -1.57090271    
  -48.7387619      -4.69004917      -20.0000000       254236.688      -1.57090271    
  -47.2626686      -4.68801212      -20.0000000       254236.688      -1.57090271    
  -48.7387619      -4.69004917      -20.0000000       145875.719      -1.57092059    
  -50.1911316      -4.70199823      -20.0000000       145875.719      -1.57092059    
  -50.1564102      -3.12996602      -20.0000000       145875.719      -1.57092059    
  -48.7254105      -3.12169194      -20.0000000       145875.719      -1.57092059    
  -50.1564102      -3.12996602      -20.0000000       80166.8828      -1.57092130    
  -51.4683685      -3.18431592      -20.0000000       80166.8828      -1.57092130    
  -51.8859215      -1.67511594      -20.0000000       80166.8828      -1.57092130    
  -50.2854195      -1.59545600      -20.0000000       80166.8828      -1.57092130    
  -54.6488190       1.11988902      -20.0000000       71372.0000       1.57073379    
  -56.1067696       1.60355306      -20.0000000       71372.0000       1.57073379    
  -55.6295395       2.91055298      -20.0000000       71372.0000       1.57073379    
  -54.3531990       2.57653904      -20.0000000       71372.0000       1.57073379    
  -51.7686501     -0.191007897      -20.0000000       28169.3477      -1.57090867    
  -51.8859215      -1.67511594      -20.0000000       28169.3477      -1.57090867    
  -53.3087082     -0.726661325      -20.0000000       28169.3477      -1.57090867    
  -53.3087082     -0.726661325      -20.0000000       28169.3477      -1.57090867    
  -51.7686501     -0.191007897      -20.0000000       10555.0889       1.57068908    
  -53.3087082     -0.726661325      -20.0000000       10555.0889       1.57068908    
  -53.2043991       1.01675200      -20.0000000       10555.0889       1.57068908    
  -51.7500000       1.29565406      -20.0000000       10555.0889       1.57068908    
  -53.0367393       2.70281792      -20.0000000       61253.9453       1.57071257    
  -53.2043991       1.01675200      -20.0000000       61253.9453       1.57071257    
  -54.6488190       1.11988902      -20.0000000       61253.9453       1.57071257    
  -54.3531990       2.57653904      -20.0000000       61253.9453       1.57071257    
  -45.7804108      -6.25000000      -20.0000000       252077.750      -1.57090318    
  -47.2866096      -6.25000000      -20.0000000       252077.750      -1.57090318    
  -47.2626686      -4.68801212      -20.0000000       252077.750      -1.57090318    
  -45.7679100      -4.68779421      -20.0000000       252077.750      -1.57090318    
  -47.2626686      -4.68801212      -20.0000000       146101.469      -1.57092476    
  -48.7387619      -4.69004917      -20.0000000       146101.469      -1.57092476    
  -48.7254105      -3.12169194      -20.0000000       146101.469      -1.57092476    
  -47.2550507      -3.12222195      -20.0000000       146101.469      -1.57092476    
  -54.5736809       4.04919481      -20.0000000       160227.453       1.57073843    
  -55.6295395       2.91055298      -20.0000000       160227.453       1.57073843    
  -56.8836594       3.56473303      -20.0000000       160227.453       1.57073843    
  -55.8850899       4.68635893      -20.0000000       160227.453       1.57073843    
  -48.7254105      -3.12169194      -20.0000000       79789.4062      -1.57093441    
  -50.1564102      -3.12996602      -20.0000000       79789.4062      -1.57093441    
  -50.2854195      -1.59545600      -20.0000000       79789.4062      -1.57093441    
  -48.7658615      -1.56390297      -20.0000000       79789.4062      -1.57093441    
  -50.2854195      -1.59545600      -20.0000000       28946.5859      -1.57092667    
  -51.8859215      -1.67511594      -20.0000000       28946.5859      -1.57092667    
  -51.7686501     -0.191007897      -20.0000000       28946.5859      -1.57092667    
  -50.2816200      -7.23225027E-02  -20.0000000       28946.5859      -1.57092667    
  -55.6295395       2.91055298      -20.0000000       115894.133       1.57072842    
  -54.5736809       4.04919481      -20.0000000       115894.133       1.57072842    
  -54.3531990       2.57653904      -20.0000000       115894.133       1.57072842    
  -54.3531990       2.57653904      -20.0000000       115894.133       1.57072842    
  -51.6464691       2.90894699      -20.0000000       65391.0664       1.57068944    
  -51.7500000       1.29565406      -20.0000000       65391.0664       1.57068944    
  -53.2043991       1.01675200      -20.0000000       65391.0664       1.57068944    
  -53.0367393       2.70281792      -20.0000000       65391.0664       1.57068944    
  -44.2742119      -6.25000000      -20.0000000       247724.297      -1.57089949    
  -45.7804108      -6.25000000      -20.0000000       247724.297      -1.57089949    
  -45.7679100      -4.68779421      -20.0000000       247724.297      -1.57089949    
  -44.2670212      -4.68766403      -20.0000000       247724.297      -1.57089949    
  -45.7679100      -4.68779421      -20.0000000       145373.078      -1.57092273    
  -47.2626686      -4.68801212      -20.0000000       145373.078      -1.57092273    
  -47.2550507      -3.12222195      -20.0000000       145373.078      -1.57092273    
  -45.7611885      -3.12411094      -20.0000000       145373.078      -1.57092273    
  -51.7500000       1.29565406      -20.0000000       20237.6992       1.57066298    
  -50.2459984       1.47492099      -20.0000000       20237.6992       1.57066298    
  -50.2816200      -7.23225027E-02  -20.0000000       20237.6992       1.57066298    
  -51.7686501     -0.191007897      -20.0000000       20237.6992       1.57066298    
  -47.2550507      -3.12222195      -20.0000000       79819.8672      -1.57093918    
  -48.7254105      -3.12169194      -20.0000000       79819.8672      -1.57093918    
  -48.7658615      -1.56390297      -20.0000000       79819.8672      -1.57093918    
  -47.2643318      -1.55986798      -20.0000000       79819.8672      -1.57093918    
  -48.7658615      -1.56390297      -20.0000000       26479.7344      -1.57094157    
  -50.2854195      -1.59545600      -20.0000000       26479.7344      -1.57094157    
  -50.2816200      -7.23225027E-02  -20.0000000       26479.7344      -1.57094157    
  -48.7753716      -1.42937005E-02  -20.0000000       26479.7344      -1.57094157    
  -54.5736809       4.04919481      -20.0000000       123394.555       1.57071435    
  -53.0954399       4.36336088      -20.0000000       123394.555       1.57071435    
  -53.0367393       2.70281792      -20.0000000       123394.555       1.57071435    
  -54.3531990       2.57653904      -20.0000000       123394.555       1.57071435    
  -54.6465797       5.53822613      -20.0000000       214131.156       1.57073283    
  -54.5736809       4.04919481      -20.0000000       214131.156       1.57073283    
  -55.8850899       4.68635893      -20.0000000       214131.156       1.57073283    
  -55.8850899       4.68635893      -20.0000000       214131.156       1.57073283    
  -44.2670212      -4.68766403      -20.0000000       241664.125      -1.57089257    
  -42.7620697      -4.68767691      -20.0000000       241664.125      -1.57089257    
  -42.7680206      -6.25000000      -20.0000000       241664.125      -1.57089257    
  -44.2742119      -6.25000000      -20.0000000       241664.125      -1.57089257    
  -44.2670212      -4.68766403      -20.0000000       143435.750      -1.57091546    
  -45.7679100      -4.68779421      -20.0000000       143435.750      -1.57091546    
  -45.7611885      -3.12411094      -20.0000000       143435.750      -1.57091546    
  -44.2611694      -3.12488103      -20.0000000       143435.750      -1.57091546    
  -45.7611885      -3.12411094      -20.0000000       79559.1016      -1.57093573    
  -47.2550507      -3.12222195      -20.0000000       79559.1016      -1.57093573    
  -47.2643318      -1.55986798      -20.0000000       79559.1016      -1.57093573    
  -45.7603798      -1.56126106      -20.0000000       79559.1016      -1.57093573    
  -50.2459984       1.47492099      -20.0000000       72985.1406       1.57066977    
  -51.7500000       1.29565406      -20.0000000       72985.1406       1.57066977    
  -51.6464691       2.90894699      -20.0000000       72985.1406       1.57066977    
  -50.2011604       3.04989505      -20.0000000       72985.1406       1.57066977    
  -54.6465797       5.53822613      -20.0000000       216234.453       1.57072282    
  -53.2416306       6.06926107      -20.0000000       216234.453       1.57072282    
  -53.0954399       4.36336088      -20.0000000       216234.453       1.57072282    
  -54.5736809       4.04919481      -20.0000000       216234.453       1.57072282    
  -47.2643318      -1.55986798      -20.0000000       25627.2539      -1.57094669    
  -48.7658615      -1.56390297      -20.0000000       25627.2539      -1.57094669    
  -48.7753716      -1.42937005E-02  -20.0000000       25627.2539      -1.57094669    
  -47.2657204       0.00000000      -20.0000000       25627.2539      -1.57094669    
  -48.7753716      -1.42937005E-02  -20.0000000       23775.0234       1.57064879    
  -50.2816200      -7.23225027E-02  -20.0000000       23775.0234       1.57064879    
  -50.2459984       1.47492099      -20.0000000       23775.0234       1.57064879    
  -48.7560692       1.53868604      -20.0000000       23775.0234       1.57064879    
  -51.6464691       2.90894699      -20.0000000       130779.461       1.57069647    
  -53.0367393       2.70281792      -20.0000000       130779.461       1.57069647    
  -53.0954399       4.36336088      -20.0000000       130779.461       1.57069647    
  -51.6648903       4.56408405      -20.0000000       130779.461       1.57069647    
  -41.2618294      -6.25000000      -20.0000000       234448.125      -1.57088423    
  -42.7680206      -6.25000000      -20.0000000       234448.125      -1.57088423    
  -42.7620697      -4.68767691      -20.0000000       234448.125      -1.57088423    
  -41.2566490      -4.68782711      -20.0000000       234448.125      -1.57088423    
  -44.2611694      -3.12488103      -20.0000000       140437.859      -1.57090509    
  -42.7563400      -3.12513494      -20.0000000       140437.859      -1.57090509    
  -42.7620697      -4.68767691      -20.0000000       140437.859      -1.57090509    
  -44.2670212      -4.68766403      -20.0000000       140437.859      -1.57090509    
  -44.2611694      -3.12488103      -20.0000000       78674.5859      -1.57092607    
  -45.7611885      -3.12411094      -20.0000000       78674.5859      -1.57092607    
  -45.7603798      -1.56126106      -20.0000000       78674.5859      -1.57092607    
  -44.2565308      -1.56226599      -20.0000000       78674.5859      -1.57092607    
  -45.7603798      -1.56126106      -20.0000000       25414.4297      -1.57094240    
  -47.2643318      -1.55986798      -20.0000000       25414.4297      -1.57094240    
  -47.2657204       0.00000000      -20.0000000       25414.4297      -1.57094240    
  -45.7582893       0.00000000      -20.0000000       25414.4297      -1.57094240    
  -47.2657204       0.00000000      -20.0000000       25147.0664       1.57064378    
  -48.7753716      -1.42937005E-02  -20.0000000       25147.0664       1.57064378    
  -48.7560692       1.53868604      -20.0000000       25147.0664       1.57064378    
  -47.2535896       1.55706894      -20.0000000       25147.0664       1.57064378    
  -48.7560692       1.53868604      -20.0000000       77734.7734       1.57065725    
  -50.2459984       1.47492099      -20.0000000       77734.7734       1.57065725    
  -50.2011604       3.04989505      -20.0000000       77734.7734       1.57065725    
  -48.7281189       3.10503101      -20.0000000       77734.7734       1.57065725    
  -50.2011604       3.04989505      -20.0000000       138833.547       1.57068157    
  -51.6464691       2.90894699      -20.0000000       138833.547       1.57068157    
  -51.6648903       4.56408405      -20.0000000       138833.547       1.57068157    
  -50.2067184       4.64797401      -20.0000000       138833.547       1.57068157    
  -51.6648903       4.56408405      -20.0000000       235184.984       1.57071197    
  -53.0954399       4.36336088      -20.0000000       235184.984       1.57071197    
  -53.2416306       6.06926107      -20.0000000       235184.984       1.57071197    
  -51.7500000       6.25000000      -20.0000000       235184.984       1.57071197    
  -39.7556496      -6.25000000      -20.0000000       226454.000      -1.57087600    
  -41.2618294      -6.25000000      -20.0000000       226454.000      -1.57087600    
  -41.2566490      -4.68782711      -20.0000000       226454.000      -1.57087600    
  -39.7507591      -4.68851089      -20.0000000       226454.000      -1.57087600    
  -41.2566490      -4.68782711      -20.0000000       136649.547      -1.57089365    
  -42.7620697      -4.68767691      -20.0000000       136649.547      -1.57089365    
  -42.7563400      -3.12513494      -20.0000000       136649.547      -1.57089365    
  -41.2511406      -3.12541890      -20.0000000       136649.547      -1.57089365    
  -44.2565308      -1.56226599      -20.0000000       77179.7109      -1.57091284    
  -42.7509499      -1.56253600      -20.0000000       77179.7109      -1.57091284    
  -42.7563400      -3.12513494      -20.0000000       77179.7109      -1.57091284    
  -44.2611694      -3.12488103      -20.0000000       77179.7109      -1.57091284    
  -44.2565308      -1.56226599      -20.0000000       25162.4355      -1.57093132    
  -45.7603798      -1.56126106      -20.0000000       25162.4355      -1.57093132    
  -45.7582893       0.00000000      -20.0000000       25162.4355      -1.57093132    
  -44.2515602       0.00000000      -20.0000000       25162.4355      -1.57093132    
  -45.7582893       0.00000000      -20.0000000       25277.4434       1.57064760    
  -47.2657204       0.00000000      -20.0000000       25277.4434       1.57064760    
  -47.2535896       1.55706894      -20.0000000       25277.4434       1.57064760    
  -45.7509003       1.56100297      -20.0000000       25277.4434       1.57064760    
  -47.2535896       1.55706894      -20.0000000       79371.0703       1.57065260    
  -48.7560692       1.53868604      -20.0000000       79371.0703       1.57065260    
  -48.7281189       3.10503101      -20.0000000       79371.0703       1.57065260    
  -47.2370110       3.11982203      -20.0000000       79371.0703       1.57065260    
  -48.7281189       3.10503101      -20.0000000       143867.156       1.57067144    
  -50.2011604       3.04989505      -20.0000000       143867.156       1.57067144    
  -50.2067184       4.64797401      -20.0000000       143867.156       1.57067144    
  -48.7241211       4.67746210      -20.0000000       143867.156       1.57067144    
  -50.2067184       4.64797401      -20.0000000       246756.891       1.57070196    
  -51.6648903       4.56408405      -20.0000000       246756.891       1.57070196    
  -51.7500000       6.25000000      -20.0000000       246756.891       1.57070196    
  -50.2455711       6.25000000      -20.0000000       246756.891       1.57070196    
  -38.2494698      -6.25000000      -20.0000000       217995.047      -1.57086873    
  -39.7556496      -6.25000000      -20.0000000       217995.047      -1.57086873    
  -39.7507591      -4.68851089      -20.0000000       217995.047      -1.57086873    
  -38.2446404      -4.68936491      -20.0000000       217995.047      -1.57086873    
  -39.7507591      -4.68851089      -20.0000000       132336.219      -1.57088304    
  -41.2566490      -4.68782711      -20.0000000       132336.219      -1.57088304    
  -41.2511406      -3.12541890      -20.0000000       132336.219      -1.57088304    
  -39.7453995      -3.12673903      -20.0000000       132336.219      -1.57088304    
  -41.2511406      -3.12541890      -20.0000000       75236.6797      -1.57089901    
  -42.7563400      -3.12513494      -20.0000000       75236.6797      -1.57089901    
  -42.7509499      -1.56253600      -20.0000000       75236.6797      -1.57089901    
  -41.2455711      -1.56282198      -20.0000000       75236.6797      -1.57089901    
  -44.2515602       0.00000000      -20.0000000       24714.7891      -1.57091665    
  -42.7457504       0.00000000      -20.0000000       24714.7891      -1.57091665    
  -42.7509499      -1.56253600      -20.0000000       24714.7891      -1.57091665    
  -44.2565308      -1.56226599      -20.0000000       24714.7891      -1.57091665    
  -44.2515602       0.00000000      -20.0000000       24994.3926       1.57065845    
  -45.7582893       0.00000000      -20.0000000       24994.3926       1.57065845    
  -45.7509003       1.56100297      -20.0000000       24994.3926       1.57065845    
  -44.2452011       1.56199801      -20.0000000       24994.3926       1.57065845    
  -45.7509003       1.56100297      -20.0000000       79355.9375       1.57065606    
  -47.2535896       1.55706894      -20.0000000       79355.9375       1.57065606    
  -47.2370110       3.11982203      -20.0000000       79355.9375       1.57065606    
  -45.7402802       3.12332392      -20.0000000       79355.9375       1.57065606    
  -47.2370110       3.11982203      -20.0000000       145617.625       1.57066739    
  -48.7281189       3.10503101      -20.0000000       145617.625       1.57066739    
  -48.7241211       4.67746210      -20.0000000       145617.625       1.57066739    
  -47.2300911       4.68496799      -20.0000000       145617.625       1.57066739    
  -48.7241211       4.67746210      -20.0000000       252358.453       1.57069409    
  -50.2067184       4.64797401      -20.0000000       252358.453       1.57069409    
  -50.2455711       6.25000000      -20.0000000       252358.453       1.57069409    
  -48.7411499       6.25000000      -20.0000000       252358.453       1.57069409    
  -36.7432899      -6.25000000      -20.0000000       209222.703      -1.57086241    
  -38.2494698      -6.25000000      -20.0000000       209222.703      -1.57086241    
  -38.2446404      -4.68936491      -20.0000000       209222.703      -1.57086241    
  -36.7384796      -4.68897390      -20.0000000       209222.703      -1.57086241    
  -38.2446404      -4.68936491      -20.0000000       127691.797      -1.57087409    
  -39.7507591      -4.68851089      -20.0000000       127691.797      -1.57087409    
  -39.7453995      -3.12673903      -20.0000000       127691.797      -1.57087409    
  -38.2396507      -3.12933803      -20.0000000       127691.797      -1.57087409    
  -39.7453995      -3.12673903      -20.0000000       72970.0547      -1.57088661    
  -41.2511406      -3.12541890      -20.0000000       72970.0547      -1.57088661    
  -41.2455711      -1.56282198      -20.0000000       72970.0547      -1.57088661    
  -39.7399902      -1.56351995      -20.0000000       72970.0547      -1.57088661    
  -41.2455711      -1.56282198      -20.0000000       24115.1055      -1.57090139    
  -42.7509499      -1.56253600      -20.0000000       24115.1055      -1.57090139    
  -42.7457504       0.00000000      -20.0000000       24115.1055      -1.57090139    
  -41.2401695       0.00000000      -20.0000000       24115.1055      -1.57090139    
  -44.2452011       1.56199801      -20.0000000       24470.5859       1.57067287    
  -42.7402611       1.56238496      -20.0000000       24470.5859       1.57067287    
  -42.7457504       0.00000000      -20.0000000       24470.5859       1.57067287    
  -44.2515602       0.00000000      -20.0000000       24470.5859       1.57067287    
  -44.2452011       1.56199801      -20.0000000       78410.3359       1.57066572    
  -45.7509003       1.56100297      -20.0000000       78410.3359       1.57066572    
  -45.7402802       3.12332392      -20.0000000       78410.3359       1.57066572    
  -44.2380295       3.12447906      -20.0000000       78410.3359       1.57066572    
  -45.7402802       3.12332392      -20.0000000       145105.625       1.57066953    
  -47.2370110       3.11982203      -20.0000000       145105.625       1.57066953    
  -47.2300911       4.68496799      -20.0000000       145105.625       1.57066953    
  -45.7329903       4.68700409      -20.0000000       145105.625       1.57066953    
  -47.2300911       4.68496799      -20.0000000       253687.516       1.57068956    
  -48.7241211       4.67746210      -20.0000000       253687.516       1.57068956    
  -48.7411499       6.25000000      -20.0000000       253687.516       1.57068956    
  -47.2367287       6.25000000      -20.0000000       253687.516       1.57068956    
  -35.2371101      -6.25000000      -20.0000000       200280.609      -1.57085645    
  -36.7432899      -6.25000000      -20.0000000       200280.609      -1.57085645    
  -36.7384796      -4.68897390      -20.0000000       200280.609      -1.57085645    
  -35.2325211      -4.68835878      -20.0000000       200280.609      -1.57085645    
  -36.7384796      -4.68897390      -20.0000000       122735.023      -1.57086682    
  -38.2446404      -4.68936491      -20.0000000       122735.023      -1.57086682    
  -38.2396507      -3.12933803      -20.0000000       122735.023      -1.57086682    
  -36.7339096      -3.12783909      -20.0000000       122735.023      -1.57086682    
  -38.2396507      -3.12933803      -20.0000000       70501.1641      -1.57087648    
  -39.7453995      -3.12673903      -20.0000000       70501.1641      -1.57087648    
  -39.7399902      -1.56351995      -20.0000000       70501.1641      -1.57087648    
  -38.2346497      -1.56438303      -20.0000000       70501.1641      -1.57087648    
  -39.7399902      -1.56351995      -20.0000000       23418.5449      -1.57088792    
  -41.2455711      -1.56282198      -20.0000000       23418.5449      -1.57088792    
  -41.2401695       0.00000000      -20.0000000       23418.5449      -1.57088792    