 VARIABLES="X" "Y" "Z" "abs(p) (Pa)" "angle(p) (rad)"
ZONE N=   3650,E =    3624, F=FEPOINT, ET=QUADRILATERAL
  -56.5164909      -2.47323704      -20.0000000       1103.28479       1.12530303    
  -55.4176407      -3.26747894      -20.0000000       1103.28479       1.12530303    
  -55.9264717      -4.64953518      -20.0000000       1103.28479       1.12530303    
  -56.9148483      -3.51935697      -20.0000000       1103.28479       1.12530303    
  -56.9148483      -3.51935697      -20.0000000       1373.97253       1.21706796    
  -57.6058807      -2.18402195      -20.0000000       1373.97253       1.21706796    
  -56.5164909      -2.47323704      -20.0000000       1373.97253       1.21706796    
  -56.5164909      -2.47323704      -20.0000000       1373.97253       1.21706796    
  -54.6953812      -5.51239681      -20.0000000       851.690735      0.971131623    
  -55.9264717      -4.64953518      -20.0000000       851.690735      0.971131623    
  -55.4176407      -3.26747894      -20.0000000       851.690735      0.971131623    
  -54.2450790      -3.94889998      -20.0000000       851.690735      0.971131623    
  -54.2450790      -3.94889998      -20.0000000       633.552551      0.696844041    
  -52.9834785      -4.46340179      -20.0000000       633.552551      0.696844041    
  -53.2955093      -6.05576801      -20.0000000       633.552551      0.696844041    
  -54.6953812      -5.51239681      -20.0000000       633.552551      0.696844041    
  -56.5223999      -1.11500299      -20.0000000       1344.81262       1.21991670    
  -56.5164909      -2.47323704      -20.0000000       1344.81262       1.21991670    
  -57.6058807      -2.18402195      -20.0000000       1344.81262       1.21991670    
  -57.9577713     -0.724482894      -20.0000000       1344.81262       1.21991670    
  -56.5164909      -2.47323704      -20.0000000       935.956543       1.06950986    
  -56.5223999      -1.11500299      -20.0000000       935.956543       1.06950986    
  -55.1657600      -1.76926601      -20.0000000       935.956543       1.06950986    
  -55.4176407      -3.26747894      -20.0000000       935.956543       1.06950986    
  -54.2450790      -3.94889998      -20.0000000       706.880676      0.886641860    
  -55.4176407      -3.26747894      -20.0000000       706.880676      0.886641860    
  -55.1657600      -1.76926601      -20.0000000       706.880676      0.886641860    
  -53.8819199      -2.32836604      -20.0000000       706.880676      0.886641860    
  -52.9834785      -4.46340179      -20.0000000       501.356598      0.237667978    
  -51.6155815      -4.69134283      -20.0000000       501.356598      0.237667978    
  -51.8049088      -6.24783087      -20.0000000       501.356598      0.237667978    
  -53.2955093      -6.05576801      -20.0000000       501.356598      0.237667978    
  -56.3964119      0.254809886      -20.0000000       1341.55042       1.22400248    
  -56.5223999      -1.11500299      -20.0000000       1341.55042       1.22400248    
  -57.9577713     -0.724482894      -20.0000000       1341.55042       1.22400248    
  -57.9511719      0.779103875      -20.0000000       1341.55042       1.22400248    
  -53.8819199      -2.32836604      -20.0000000       551.651794      0.626859903    
  -52.7235603      -2.92538095      -20.0000000       551.651794      0.626859903    
  -52.9834785      -4.46340179      -20.0000000       551.651794      0.626859903    
  -54.2450790      -3.94889998      -20.0000000       551.651794      0.626859903    
  -56.5223999      -1.11500299      -20.0000000       883.079468       1.05056393    
  -56.3964119      0.254809886      -20.0000000       883.079468       1.05056393    
  -54.8835487     -0.325594515      -20.0000000       883.079468       1.05056393    
  -55.1657600      -1.76926601      -20.0000000       883.079468       1.05056393    
  -50.2990494      -6.25000000      -20.0000000       500.477997     -0.265431672    
  -51.8049088      -6.24783087      -20.0000000       500.477997     -0.265431672    
  -51.6155815      -4.69134283      -20.0000000       500.477997     -0.265431672    
  -50.1911316      -4.70199823      -20.0000000       500.477997     -0.265431672    
  -53.8819199      -2.32836604      -20.0000000       637.720886      0.829764903    
  -55.1657600      -1.76926601      -20.0000000       637.720886      0.829764903    
  -54.8835487     -0.325594515      -20.0000000       637.720886      0.829764903    
  -53.3087082     -0.726661325      -20.0000000       637.720886      0.829764903    
  -52.7235603      -2.92538095      -20.0000000       460.611755      0.253464699    
  -51.4683685      -3.18431592      -20.0000000       460.611755      0.253464699    
  -51.6155815      -4.69134283      -20.0000000       460.611755      0.253464699    
  -52.9834785      -4.46340179      -20.0000000       460.611755      0.253464699    
  -56.1067696       1.60355306      -20.0000000       1291.31396       1.20890141    
  -56.3964119      0.254809886      -20.0000000       1291.31396       1.20890141    
  -57.9511719      0.779103875      -20.0000000       1291.31396       1.20890141    
  -57.5863686       2.23558092      -20.0000000       1291.31396       1.20890141    
  -56.3964119      0.254809886      -20.0000000       838.663208       1.02276504    
  -56.1067696       1.60355306      -20.0000000       838.663208       1.02276504    
  -54.6488190       1.11988902      -20.0000000       838.663208       1.02276504    
  -54.8835487     -0.325594515      -20.0000000       838.663208       1.02276504    
  -51.8859215      -1.67511594      -20.0000000       494.421326      0.531215608    
  -52.7235603      -2.92538095      -20.0000000       494.421326      0.531215608    
  -53.8819199      -2.32836604      -20.0000000       494.421326      0.531215608    
  -53.3087082     -0.726661325      -20.0000000       494.421326      0.531215608    
  -48.7928200      -6.25000000      -20.0000000       579.862976     -0.610519588    
  -50.2990494      -6.25000000      -20.0000000       579.862976     -0.610519588    
  -50.1911316      -4.70199823      -20.0000000       579.862976     -0.610519588    
  -48.7387619      -4.69004917      -20.0000000       579.862976     -0.610519588    
  -50.1911316      -4.70199823      -20.0000000       446.547211     -0.164793521    
  -51.6155815      -4.69134283      -20.0000000       446.547211     -0.164793521    
  -51.4683685      -3.18431592      -20.0000000       446.547211     -0.164793521    
  -50.1564102      -3.12996602      -20.0000000       446.547211     -0.164793521    
  -54.6488190       1.11988902      -20.0000000       598.386169      0.779392600    
  -53.2043991       1.01675200      -20.0000000       598.386169      0.779392600    
  -53.3087082     -0.726661325      -20.0000000       598.386169      0.779392600    
  -54.8835487     -0.325594515      -20.0000000       598.386169      0.779392600    
  -51.4683685      -3.18431592      -20.0000000       442.280212      0.258085281    
  -52.7235603      -2.92538095      -20.0000000       442.280212      0.258085281    
  -51.8859215      -1.67511594      -20.0000000       442.280212      0.258085281    
  -51.8859215      -1.67511594      -20.0000000       442.280212      0.258085281    
  -55.6295395       2.91055298      -20.0000000       1189.77625       1.16923261    
  -56.1067696       1.60355306      -20.0000000       1189.77625       1.16923261    
  -57.5863686       2.23558092      -20.0000000       1189.77625       1.16923261    
  -56.8836594       3.56473303      -20.0000000       1189.77625       1.16923261    
  -47.2866096      -6.25000000      -20.0000000       683.838440     -0.822012067    
  -48.7928200      -6.25000000      -20.0000000       683.838440     -0.822012067    
  -48.7387619      -4.69004917      -20.0000000       683.838440     -0.822012067    
  -47.2626686      -4.68801212      -20.0000000       683.838440     -0.822012067    
  -48.7387619      -4.69004917      -20.0000000       492.781586     -0.501687944    
  -50.1911316      -4.70199823      -20.0000000       492.781586     -0.501687944    
  -50.1564102      -3.12996602      -20.0000000       492.781586     -0.501687944    
  -48.7254105      -3.12169194      -20.0000000       492.781586     -0.501687944    
  -50.1564102      -3.12996602      -20.0000000       419.933105      -4.55980711E-02
  -51.4683685      -3.18431592      -20.0000000       419.933105      -4.55980711E-02
  -51.8859215      -1.67511594      -20.0000000       419.933105      -4.55980711E-02
  -50.2854195      -1.59545600      -20.0000000       419.933105      -4.55980711E-02
  -54.6488190       1.11988902      -20.0000000       790.153320      0.976191998    
  -56.1067696       1.60355306      -20.0000000       790.153320      0.976191998    
  -55.6295395       2.91055298      -20.0000000       790.153320      0.976191998    
  -54.3531990       2.57653904      -20.0000000       790.153320      0.976191998    
  -51.7686501     -0.191007897      -20.0000000       450.400452      0.385002762    
  -51.8859215      -1.67511594      -20.0000000       450.400452      0.385002762    
  -53.3087082     -0.726661325      -20.0000000       450.400452      0.385002762    
  -53.3087082     -0.726661325      -20.0000000       450.400452      0.385002762    
  -51.7686501     -0.191007897      -20.0000000       462.106445      0.443250448    
  -53.3087082     -0.726661325      -20.0000000       462.106445      0.443250448    
  -53.2043991       1.01675200      -20.0000000       462.106445      0.443250448    
  -51.7500000       1.29565406      -20.0000000       462.106445      0.443250448    
  -53.0367393       2.70281792      -20.0000000       578.921204      0.730333149    
  -53.2043991       1.01675200      -20.0000000       578.921204      0.730333149    
  -54.6488190       1.11988902      -20.0000000       578.921204      0.730333149    
  -54.3531990       2.57653904      -20.0000000       578.921204      0.730333149    
  -45.7804108      -6.25000000      -20.0000000       787.694519     -0.956883550    
  -47.2866096      -6.25000000      -20.0000000       787.694519     -0.956883550    
  -47.2626686      -4.68801212      -20.0000000       787.694519     -0.956883550    
  -45.7679100      -4.68779421      -20.0000000       787.694519     -0.956883550    
  -47.2626686      -4.68801212      -20.0000000       570.399536     -0.736658037    
  -48.7387619      -4.69004917      -20.0000000       570.399536     -0.736658037    
  -48.7254105      -3.12169194      -20.0000000       570.399536     -0.736658037    
  -47.2550507      -3.12222195      -20.0000000       570.399536     -0.736658037    
  -54.5736809       4.04919481      -20.0000000       999.285583       1.07393444    
  -55.6295395       2.91055298      -20.0000000       999.285583       1.07393444    
  -56.8836594       3.56473303      -20.0000000       999.285583       1.07393444    
  -55.8850899       4.68635893      -20.0000000       999.285583       1.07393444    
  -48.7254105      -3.12169194      -20.0000000       449.191193     -0.416442752    
  -50.1564102      -3.12996602      -20.0000000       449.191193     -0.416442752    
  -50.2854195      -1.59545600      -20.0000000       449.191193     -0.416442752    
  -48.7658615      -1.56390297      -20.0000000       449.191193     -0.416442752    
  -50.2854195      -1.59545600      -20.0000000       410.793701       2.67813895E-02
  -51.8859215      -1.67511594      -20.0000000       410.793701       2.67813895E-02
  -51.7686501     -0.191007897      -20.0000000       410.793701       2.67813895E-02
  -50.2816200      -7.23225027E-02  -20.0000000       410.793701       2.67813895E-02
  -55.6295395       2.91055298      -20.0000000       746.553833      0.917455137    
  -54.5736809       4.04919481      -20.0000000       746.553833      0.917455137    
  -54.3531990       2.57653904      -20.0000000       746.553833      0.917455137    
  -54.3531990       2.57653904      -20.0000000       746.553833      0.917455137    
  -51.6464691       2.90894699      -20.0000000       458.478119      0.387990892    
  -51.7500000       1.29565406      -20.0000000       458.478119      0.387990892    
  -53.2043991       1.01675200      -20.0000000       458.478119      0.387990892    
  -53.0367393       2.70281792      -20.0000000       458.478119      0.387990892    
  -44.2742119      -6.25000000      -20.0000000       880.668030      -1.04824710    
  -45.7804108      -6.25000000      -20.0000000       880.668030      -1.04824710    
  -45.7679100      -4.68779421      -20.0000000       880.668030      -1.04824710    
  -44.2670212      -4.68766403      -20.0000000       880.668030      -1.04824710    
  -45.7679100      -4.68779421      -20.0000000       655.328064     -0.892475069    
  -47.2626686      -4.68801212      -20.0000000       655.328064     -0.892475069    
  -47.2550507      -3.12222195      -20.0000000       655.328064     -0.892475069    
  -45.7611885      -3.12411094      -20.0000000       655.328064     -0.892475069    
  -51.7500000       1.29565406      -20.0000000       409.796967       1.48945926E-02
  -50.2459984       1.47492099      -20.0000000       409.796967       1.48945926E-02
  -50.2816200      -7.23225027E-02  -20.0000000       409.796967       1.48945926E-02
  -51.7686501     -0.191007897      -20.0000000       409.796967       1.48945926E-02
  -47.2550507      -3.12222195      -20.0000000       514.298157     -0.676149249    
  -48.7254105      -3.12169194      -20.0000000       514.298157     -0.676149249    
  -48.7658615      -1.56390297      -20.0000000       514.298157     -0.676149249    
  -47.2643318      -1.55986798      -20.0000000       514.298157     -0.676149249    
  -48.7658615      -1.56390297      -20.0000000       430.063477     -0.365737736    
  -50.2854195      -1.59545600      -20.0000000       430.063477     -0.365737736    
  -50.2816200      -7.23225027E-02  -20.0000000       430.063477     -0.365737736    
  -48.7753716      -1.42937005E-02  -20.0000000       430.063477     -0.365737736    
  -54.5736809       4.04919481      -20.0000000       585.822754      0.696151137    
  -53.0954399       4.36336088      -20.0000000       585.822754      0.696151137    
  -53.0367393       2.70281792      -20.0000000       585.822754      0.696151137    
  -54.3531990       2.57653904      -20.0000000       585.822754      0.696151137    
  -54.6465797       5.53822613      -20.0000000       878.434937      0.974322855    
  -54.5736809       4.04919481      -20.0000000       878.434937      0.974322855    
  -55.8850899       4.68635893      -20.0000000       878.434937      0.974322855    
  -55.8850899       4.68635893      -20.0000000       878.434937      0.974322855    
  -44.2670212      -4.68766403      -20.0000000       958.828003      -1.11414218    
  -42.7620697      -4.68767691      -20.0000000       958.828003      -1.11414218    
  -42.7680206      -6.25000000      -20.0000000       958.828003      -1.11414218    
  -44.2742119      -6.25000000      -20.0000000       958.828003      -1.11414218    
  -44.2670212      -4.68766403      -20.0000000       734.910034     -0.998728216    
  -45.7679100      -4.68779421      -20.0000000       734.910034     -0.998728216    
  -45.7611885      -3.12411094      -20.0000000       734.910034     -0.998728216    
  -44.2611694      -3.12488103      -20.0000000       734.910034     -0.998728216    
  -45.7611885      -3.12411094      -20.0000000       589.970642     -0.848611176    
  -47.2550507      -3.12222195      -20.0000000       589.970642     -0.848611176    
  -47.2643318      -1.55986798      -20.0000000       589.970642     -0.848611176    
  -45.7603798      -1.56126106      -20.0000000       589.970642     -0.848611176    
  -50.2459984       1.47492099      -20.0000000       418.462860      -3.74852382E-02
  -51.7500000       1.29565406      -20.0000000       418.462860      -3.74852382E-02
  -51.6464691       2.90894699      -20.0000000       418.462860      -3.74852382E-02
  -50.2011604       3.04989505      -20.0000000       418.462860      -3.74852382E-02
  -54.6465797       5.53822613      -20.0000000       642.501526      0.710464299    
  -53.2416306       6.06926107      -20.0000000       642.501526      0.710464299    
  -53.0954399       4.36336088      -20.0000000       642.501526      0.710464299    
  -54.5736809       4.04919481      -20.0000000       642.501526      0.710464299    
  -47.2643318      -1.55986798      -20.0000000       489.470123     -0.642814279    
  -48.7658615      -1.56390297      -20.0000000       489.470123     -0.642814279    
  -48.7753716      -1.42937005E-02  -20.0000000       489.470123     -0.642814279    
  -47.2657204       0.00000000      -20.0000000       489.470123     -0.642814279    
  -48.7753716      -1.42937005E-02  -20.0000000       430.174316     -0.367645621    
  -50.2816200      -7.23225027E-02  -20.0000000       430.174316     -0.367645621    
  -50.2459984       1.47492099      -20.0000000       430.174316     -0.367645621    
  -48.7560692       1.53868604      -20.0000000       430.174316     -0.367645621    
  -51.6464691       2.90894699      -20.0000000       466.410675      0.309952855    
  -53.0367393       2.70281792      -20.0000000       466.410675      0.309952855    
  -53.0954399       4.36336088      -20.0000000       466.410675      0.309952855    
  -51.6648903       4.56408405      -20.0000000       466.410675      0.309952855    
  -41.2618294      -6.25000000      -20.0000000       1020.63910      -1.16423261    
  -42.7680206      -6.25000000      -20.0000000       1020.63910      -1.16423261    
  -42.7620697      -4.68767691      -20.0000000       1020.63910      -1.16423261    
  -41.2566490      -4.68782711      -20.0000000       1020.63910      -1.16423261    
  -44.2611694      -3.12488103      -20.0000000       803.609802      -1.07486296    
  -42.7563400      -3.12513494      -20.0000000       803.609802      -1.07486296    
  -42.7620697      -4.68767691      -20.0000000       803.609802      -1.07486296    
  -44.2670212      -4.68766403      -20.0000000       803.609802      -1.07486296    
  -44.2611694      -3.12488103      -20.0000000       662.784912     -0.965681612    
  -45.7611885      -3.12411094      -20.0000000       662.784912     -0.965681612    
  -45.7603798      -1.56126106      -20.0000000       662.784912     -0.965681612    
  -44.2565308      -1.56226599      -20.0000000       662.784912     -0.965681612    
  -45.7603798      -1.56126106      -20.0000000       561.143433     -0.825432181    
  -47.2643318      -1.55986798      -20.0000000       561.143433     -0.825432181    
  -47.2657204       0.00000000      -20.0000000       561.143433     -0.825432181    
  -45.7582893       0.00000000      -20.0000000       561.143433     -0.825432181    
  -47.2657204       0.00000000      -20.0000000       489.819427     -0.643628657    
  -48.7753716      -1.42937005E-02  -20.0000000       489.819427     -0.643628657    
  -48.7560692       1.53868604      -20.0000000       489.819427     -0.643628657    
  -47.2535896       1.55706894      -20.0000000       489.819427     -0.643628657    
  -48.7560692       1.53868604      -20.0000000       448.809235     -0.415224195    
  -50.2459984       1.47492099      -20.0000000       448.809235     -0.415224195    
  -50.2011604       3.04989505      -20.0000000       448.809235     -0.415224195    
  -48.7281189       3.10503101      -20.0000000       448.809235     -0.415224195    
  -50.2011604       3.04989505      -20.0000000       442.953003     -0.133740634    
  -51.6464691       2.90894699      -20.0000000       442.953003     -0.133740634    
  -51.6648903       4.56408405      -20.0000000       442.953003     -0.133740634    
  -50.2067184       4.64797401      -20.0000000       442.953003     -0.133740634    
  -51.6648903       4.56408405      -20.0000000       500.818909      0.241546497    
  -53.0954399       4.36336088      -20.0000000       500.818909      0.241546497    
  -53.2416306       6.06926107      -20.0000000       500.818909      0.241546497    
  -51.7500000       6.25000000      -20.0000000       500.818909      0.241546497    
  -39.7556496      -6.25000000      -20.0000000       1065.89307      -1.20415568    
  -41.2618294      -6.25000000      -20.0000000       1065.89307      -1.20415568    
  -41.2566490      -4.68782711      -20.0000000       1065.89307      -1.20415568    
  -39.7507591      -4.68851089      -20.0000000       1065.89307      -1.20415568    
  -41.2566490      -4.68782711      -20.0000000       859.315735      -1.13226819    
  -42.7620697      -4.68767691      -20.0000000       859.315735      -1.13226819    
  -42.7563400      -3.12513494      -20.0000000       859.315735      -1.13226819    
  -41.2511406      -3.12541890      -20.0000000       859.315735      -1.13226819    
  -44.2565308      -1.56226599      -20.0000000       726.777771      -1.04905820    
  -42.7509499      -1.56253600      -20.0000000       726.777771      -1.04905820    
  -42.7563400      -3.12513494      -20.0000000       726.777771      -1.04905820    
  -44.2611694      -3.12488103      -20.0000000       726.777771      -1.04905820    
  -44.2565308      -1.56226599      -20.0000000       631.009460     -0.948590398    
  -45.7603798      -1.56126106      -20.0000000       631.009460     -0.948590398    
  -45.7582893       0.00000000      -20.0000000       631.009460     -0.948590398    
  -44.2515602       0.00000000      -20.0000000       631.009460     -0.948590398    
  -45.7582893       0.00000000      -20.0000000       561.626038     -0.826042533    
  -47.2657204       0.00000000      -20.0000000       561.626038     -0.826042533    
  -47.2535896       1.55706894      -20.0000000       561.626038     -0.826042533    
  -45.7509003       1.56100297      -20.0000000       561.626038     -0.826042533    
  -47.2535896       1.55706894      -20.0000000       515.230652     -0.677687228    
  -48.7560692       1.53868604      -20.0000000       515.230652     -0.677687228    
  -48.7281189       3.10503101      -20.0000000       515.230652     -0.677687228    
  -47.2370110       3.11982203      -20.0000000       515.230652     -0.677687228    
  -48.7281189       3.10503101      -20.0000000       491.708771     -0.497697204    
  -50.2011604       3.04989505      -20.0000000       491.708771     -0.497697204    
  -50.2067184       4.64797401      -20.0000000       491.708771     -0.497697204    
  -48.7241211       4.67746210      -20.0000000       491.708771     -0.497697204    
  -50.2067184       4.64797401      -20.0000000       499.598450     -0.264657259    
  -51.6648903       4.56408405      -20.0000000       499.598450     -0.264657259    
  -51.7500000       6.25000000      -20.0000000       499.598450     -0.264657259    
  -50.2455711       6.25000000      -20.0000000       499.598450     -0.264657259    
  -38.2494698      -6.25000000      -20.0000000       1095.06189      -1.23733759    
  -39.7556496      -6.25000000      -20.0000000       1095.06189      -1.23733759    
  -39.7507591      -4.68851089      -20.0000000       1095.06189      -1.23733759    
  -38.2446404      -4.68936491      -20.0000000       1095.06189      -1.23733759    
  -39.7507591      -4.68851089      -20.0000000       901.462830      -1.17760825    
  -41.2566490      -4.68782711      -20.0000000       901.462830      -1.17760825    
  -41.2511406      -3.12541890      -20.0000000       901.462830      -1.17760825    
  -39.7453995      -3.12673903      -20.0000000       901.462830      -1.17760825    
  -41.2511406      -3.12541890      -20.0000000       779.296082      -1.11143494    
  -42.7563400      -3.12513494      -20.0000000       779.296082      -1.11143494    
  -42.7509499      -1.56253600      -20.0000000       779.296082      -1.11143494    
  -41.2455711      -1.56282198      -20.0000000       779.296082      -1.11143494    
  -44.2515602       0.00000000      -20.0000000       692.780701      -1.03579473    
  -42.7457504       0.00000000      -20.0000000       692.780701      -1.03579473    
  -42.7509499      -1.56253600      -20.0000000       692.780701      -1.03579473    
  -44.2565308      -1.56226599      -20.0000000       692.780701      -1.03579473    
  -44.2515602       0.00000000      -20.0000000       631.454590     -0.948970079    
  -45.7582893       0.00000000      -20.0000000       631.454590     -0.948970079    
  -45.7509003       1.56100297      -20.0000000       631.454590     -0.948970079    
  -44.2452011       1.56199801      -20.0000000       631.454590     -0.948970079    
  -45.7509003       1.56100297      -20.0000000       591.495605     -0.850298643    
  -47.2535896       1.55706894      -20.0000000       591.495605     -0.850298643    
  -47.2370110       3.11982203      -20.0000000       591.495605     -0.850298643    
  -45.7402802       3.12332392      -20.0000000       591.495605     -0.850298643    
  -47.2370110       3.11982203      -20.0000000       572.143494     -0.738967240    
  -48.7281189       3.10503101      -20.0000000       572.143494     -0.738967240    
  -48.7241211       4.67746210      -20.0000000       572.143494     -0.738967240    
  -47.2300911       4.68496799      -20.0000000       572.143494     -0.738967240    
  -48.7241211       4.67746210      -20.0000000       581.661804     -0.614315093    
  -50.2067184       4.64797401      -20.0000000       581.661804     -0.614315093    
  -50.2455711       6.25000000      -20.0000000       581.661804     -0.614315093    
  -48.7411499       6.25000000      -20.0000000       581.661804     -0.614315093    
  -36.7432899      -6.25000000      -20.0000000       1108.97498      -1.26599634    
  -38.2494698      -6.25000000      -20.0000000       1108.97498      -1.26599634    
  -38.2446404      -4.68936491      -20.0000000       1108.97498      -1.26599634    
  -36.7384796      -4.68897390      -20.0000000       1108.97498      -1.26599634    
  -38.2446404      -4.68936491      -20.0000000       929.926025      -1.21487188    
  -39.7507591      -4.68851089      -20.0000000       929.926025      -1.21487188    
  -39.7453995      -3.12673903      -20.0000000       929.926025      -1.21487188    
  -38.2396507      -3.12933803      -20.0000000       929.926025      -1.21487188    
  -39.7453995      -3.12673903      -20.0000000       819.768127      -1.16041732    
  -41.2511406      -3.12541890      -20.0000000       819.768127      -1.16041732    
  -41.2455711      -1.56282198      -20.0000000       819.768127      -1.16041732    
  -39.7399902      -1.56351995      -20.0000000       819.768127      -1.16041732    
  -41.2455711      -1.56282198      -20.0000000       743.772583      -1.10075080    
  -42.7509499      -1.56253600      -20.0000000       743.772583      -1.10075080    
  -42.7457504       0.00000000      -20.0000000       743.772583      -1.10075080    
  -41.2401695       0.00000000      -20.0000000       743.772583      -1.10075080    
  -44.2452011       1.56199801      -20.0000000       693.221252      -1.03607118    
  -42.7402611       1.56238496      -20.0000000       693.221252      -1.03607118    
  -42.7457504       0.00000000      -20.0000000       693.221252      -1.03607118    
  -44.2515602       0.00000000      -20.0000000       693.221252      -1.03607118    
  -44.2452011       1.56199801      -20.0000000       664.418762     -0.966954887    
  -45.7509003       1.56100297      -20.0000000       664.418762     -0.966954887    
  -45.7402802       3.12332392      -20.0000000       664.418762     -0.966954887    
  -44.2380295       3.12447906      -20.0000000       664.418762     -0.966954887    
  -45.7402802       3.12332392      -20.0000000       657.933044     -0.894902527    
  -47.2370110       3.11982203      -20.0000000       657.933044     -0.894902527    
  -47.2300911       4.68496799      -20.0000000       657.933044     -0.894902527    
  -45.7329903       4.68700409      -20.0000000       657.933044     -0.894902527    
  -47.2300911       4.68496799      -20.0000000       687.774048     -0.826185882    
  -48.7241211       4.67746210      -20.0000000       687.774048     -0.826185882    
  -48.7411499       6.25000000      -20.0000000       687.774048     -0.826185882    
  -47.2367287       6.25000000      -20.0000000       687.774048     -0.826185882    
  -35.2371101      -6.25000000      -20.0000000       1108.28088      -1.29156947    
  -36.7432899      -6.25000000      -20.0000000       1108.28088      -1.29156947    
  -36.7384796      -4.68897390      -20.0000000       1108.28088      -1.29156947    
  -35.2325211      -4.68835878      -20.0000000       1108.28088      -1.29156947    
  -36.7384796      -4.68897390      -20.0000000       945.327759      -1.24671197    
  -38.2446404      -4.68936491      -20.0000000       945.327759      -1.24671197    
  -38.2396507      -3.12933803      -20.0000000       945.327759      -1.24671197    
  -36.7339096      -3.12783909      -20.0000000       945.327759      -1.24671197    
  -38.2396507      -3.12933803      -20.0000000       847.725769      -1.20036662    
  -39.7453995      -3.12673903      -20.0000000       847.725769      -1.20036662    
  -39.7399902      -1.56351995      -20.0000000       847.725769      -1.20036662    
  -38.2346497      -1.56438303      -20.0000000       847.725769      -1.20036662    
  -39.7399902      -1.56351995      -20.0000000       783.484070      -1.15162528    
  -41.2455711      -1.56282198      -20.0000000       783.484070      -1.15162528    
  -41.2401695       0.00000000      -20.0000000       783.484070      -1.15162528    