 VARIABLES="X" "Y" "Z" "abs(p) (Pa)" "angle(p) (rad)"
ZONE N=   3650,E =    3624, F=FEPOINT, ET=QUADRILATERAL
  -56.5164909      -2.47323704      -20.0000000       4.87643862       1.49479067    
  -55.4176407      -3.26747894      -20.0000000       4.87643862       1.49479067    
  -55.9264717      -4.64953518      -20.0000000       4.87643862       1.49479067    
  -56.9148483      -3.51935697      -20.0000000       4.87643862       1.49479067    
  -56.9148483      -3.51935697      -20.0000000       3.51738572       2.25396538    
  -57.6058807      -2.18402195      -20.0000000       3.51738572       2.25396538    
  -56.5164909      -2.47323704      -20.0000000       3.51738572       2.25396538    
  -56.5164909      -2.47323704      -20.0000000       3.51738572       2.25396538    
  -54.6953812      -5.51239681      -20.0000000       8.45415688       1.01771772    
  -55.9264717      -4.64953518      -20.0000000       8.45415688       1.01771772    
  -55.4176407      -3.26747894      -20.0000000       8.45415688       1.01771772    
  -54.2450790      -3.94889998      -20.0000000       8.45415688       1.01771772    
  -54.2450790      -3.94889998      -20.0000000       12.6109743      0.747419238    
  -52.9834785      -4.46340179      -20.0000000       12.6109743      0.747419238    
  -53.2955093      -6.05576801      -20.0000000       12.6109743      0.747419238    
  -54.6953812      -5.51239681      -20.0000000       12.6109743      0.747419238    
  -56.5223999      -1.11500299      -20.0000000       4.50979376       2.67467141    
  -56.5164909      -2.47323704      -20.0000000       4.50979376       2.67467141    
  -57.6058807      -2.18402195      -20.0000000       4.50979376       2.67467141    
  -57.9577713     -0.724482894      -20.0000000       4.50979376       2.67467141    
  -56.5164909      -2.47323704      -20.0000000       5.91928625       1.84383690    
  -56.5223999      -1.11500299      -20.0000000       5.91928625       1.84383690    
  -55.1657600      -1.76926601      -20.0000000       5.91928625       1.84383690    
  -55.4176407      -3.26747894      -20.0000000       5.91928625       1.84383690    
  -54.2450790      -3.94889998      -20.0000000       9.16227818       1.32588875    
  -55.4176407      -3.26747894      -20.0000000       9.16227818       1.32588875    
  -55.1657600      -1.76926601      -20.0000000       9.16227818       1.32588875    
  -53.8819199      -2.32836604      -20.0000000       9.16227818       1.32588875    
  -52.9834785      -4.46340179      -20.0000000       16.5675049      0.530843318    
  -51.6155815      -4.69134283      -20.0000000       16.5675049      0.530843318    
  -51.8049088      -6.24783087      -20.0000000       16.5675049      0.530843318    
  -53.2955093      -6.05576801      -20.0000000       16.5675049      0.530843318    
  -56.3964119      0.254809886      -20.0000000       5.14658165       2.79718494    
  -56.5223999      -1.11500299      -20.0000000       5.14658165       2.79718494    
  -57.9577713     -0.724482894      -20.0000000       5.14658165       2.79718494    
  -57.9511719      0.779103875      -20.0000000       5.14658165       2.79718494    
  -53.8819199      -2.32836604      -20.0000000       12.8010845      0.993874669    
  -52.7235603      -2.92538095      -20.0000000       12.8010845      0.993874669    
  -52.9834785      -4.46340179      -20.0000000       12.8010845      0.993874669    
  -54.2450790      -3.94889998      -20.0000000       12.8010845      0.993874669    
  -56.5223999      -1.11500299      -20.0000000       6.66054249       1.92084563    
  -56.3964119      0.254809886      -20.0000000       6.66054249       1.92084563    
  -54.8835487     -0.325594515      -20.0000000       6.66054249       1.92084563    
  -55.1657600      -1.76926601      -20.0000000       6.66054249       1.92084563    
  -50.2990494      -6.25000000      -20.0000000       20.0013390      0.325620711    
  -51.8049088      -6.24783087      -20.0000000       20.0013390      0.325620711    
  -51.6155815      -4.69134283      -20.0000000       20.0013390      0.325620711    
  -50.1911316      -4.70199823      -20.0000000       20.0013390      0.325620711    
  -53.8819199      -2.32836604      -20.0000000       10.3745871       1.36904562    
  -55.1657600      -1.76926601      -20.0000000       10.3745871       1.36904562    
  -54.8835487     -0.325594515      -20.0000000       10.3745871       1.36904562    
  -53.3087082     -0.726661325      -20.0000000       10.3745871       1.36904562    
  -52.7235603      -2.92538095      -20.0000000       16.4425907      0.726612747    
  -51.4683685      -3.18431592      -20.0000000       16.4425907      0.726612747    
  -51.6155815      -4.69134283      -20.0000000       16.4425907      0.726612747    
  -52.9834785      -4.46340179      -20.0000000       16.4425907      0.726612747    
  -56.1067696       1.60355306      -20.0000000       4.79114389       2.62004805    
  -56.3964119      0.254809886      -20.0000000       4.79114389       2.62004805    
  -57.9511719      0.779103875      -20.0000000       4.79114389       2.62004805    
  -57.5863686       2.23558092      -20.0000000       4.79114389       2.62004805    
  -56.3964119      0.254809886      -20.0000000       7.18946600       1.82081079    
  -56.1067696       1.60355306      -20.0000000       7.18946600       1.82081079    
  -54.6488190       1.11988902      -20.0000000       7.18946600       1.82081079    
  -54.8835487     -0.325594515      -20.0000000       7.18946600       1.82081079    
  -51.8859215      -1.67511594      -20.0000000       14.2106371       1.01043141    
  -52.7235603      -2.92538095      -20.0000000       14.2106371       1.01043141    
  -53.8819199      -2.32836604      -20.0000000       14.2106371       1.01043141    
  -53.3087082     -0.726661325      -20.0000000       14.2106371       1.01043141    
  -48.7928200      -6.25000000      -20.0000000       22.7267780      0.115706250    
  -50.2990494      -6.25000000      -20.0000000       22.7267780      0.115706250    
  -50.1911316      -4.70199823      -20.0000000       22.7267780      0.115706250    
  -48.7387619      -4.69004917      -20.0000000       22.7267780      0.115706250    
  -50.1911316      -4.70199823      -20.0000000       19.7559090      0.487321556    
  -51.6155815      -4.69134283      -20.0000000       19.7559090      0.487321556    
  -51.4683685      -3.18431592      -20.0000000       19.7559090      0.487321556    
  -50.1564102      -3.12996602      -20.0000000       19.7559090      0.487321556    
  -54.6488190       1.11988902      -20.0000000       11.2465448       1.31549537    
  -53.2043991       1.01675200      -20.0000000       11.2465448       1.31549537    
  -53.3087082     -0.726661325      -20.0000000       11.2465448       1.31549537    
  -54.8835487     -0.325594515      -20.0000000       11.2465448       1.31549537    
  -51.4683685      -3.18431592      -20.0000000       16.7422180      0.785107493    
  -52.7235603      -2.92538095      -20.0000000       16.7422180      0.785107493    
  -51.8859215      -1.67511594      -20.0000000       16.7422180      0.785107493    
  -51.8859215      -1.67511594      -20.0000000       16.7422180      0.785107493    
  -55.6295395       2.91055298      -20.0000000       4.34144831       2.04690051    
  -56.1067696       1.60355306      -20.0000000       4.34144831       2.04690051    
  -57.5863686       2.23558092      -20.0000000       4.34144831       2.04690051    
  -56.8836594       3.56473303      -20.0000000       4.34144831       2.04690051    
  -47.2866096      -6.25000000      -20.0000000       24.4924831      -9.84213352E-02
  -48.7928200      -6.25000000      -20.0000000       24.4924831      -9.84213352E-02
  -48.7387619      -4.69004917      -20.0000000       24.4924831      -9.84213352E-02
  -47.2626686      -4.68801212      -20.0000000       24.4924831      -9.84213352E-02
  -48.7387619      -4.69004917      -20.0000000       22.3553505      0.253657848    
  -50.1911316      -4.70199823      -20.0000000       22.3553505      0.253657848    
  -50.1564102      -3.12996602      -20.0000000       22.3553505      0.253657848    
  -48.7254105      -3.12169194      -20.0000000       22.3553505      0.253657848    
  -50.1564102      -3.12996602      -20.0000000       19.3772564      0.590993345    
  -51.4683685      -3.18431592      -20.0000000       19.3772564      0.590993345    
  -51.8859215      -1.67511594      -20.0000000       19.3772564      0.590993345    
  -50.2854195      -1.59545600      -20.0000000       19.3772564      0.590993345    
  -54.6488190       1.11988902      -20.0000000       7.77707386       1.58508348    
  -56.1067696       1.60355306      -20.0000000       7.77707386       1.58508348    
  -55.6295395       2.91055298      -20.0000000       7.77707386       1.58508348    
  -54.3531990       2.57653904      -20.0000000       7.77707386       1.58508348    
  -51.7686501     -0.191007897      -20.0000000       15.9054747      0.906960368    
  -51.8859215      -1.67511594      -20.0000000       15.9054747      0.906960368    
  -53.3087082     -0.726661325      -20.0000000       15.9054747      0.906960368    
  -53.3087082     -0.726661325      -20.0000000       15.9054747      0.906960368    
  -51.7686501     -0.191007897      -20.0000000       15.3607283      0.957870185    
  -53.3087082     -0.726661325      -20.0000000       15.3607283      0.957870185    
  -53.2043991       1.01675200      -20.0000000       15.3607283      0.957870185    
  -51.7500000       1.29565406      -20.0000000       15.3607283      0.957870185    
  -53.0367393       2.70281792      -20.0000000       11.7600107       1.21099794    
  -53.2043991       1.01675200      -20.0000000       11.7600107       1.21099794    
  -54.6488190       1.11988902      -20.0000000       11.7600107       1.21099794    
  -54.3531990       2.57653904      -20.0000000       11.7600107       1.21099794    
  -45.7804108      -6.25000000      -20.0000000       25.0095978     -0.308151871    
  -47.2866096      -6.25000000      -20.0000000       25.0095978     -0.308151871    
  -47.2626686      -4.68801212      -20.0000000       25.0095978     -0.308151871    
  -45.7679100      -4.68779421      -20.0000000       25.0095978     -0.308151871    
  -47.2626686      -4.68801212      -20.0000000       23.9397831       1.29760038E-02
  -48.7387619      -4.69004917      -20.0000000       23.9397831       1.29760038E-02
  -48.7254105      -3.12169194      -20.0000000       23.9397831       1.29760038E-02
  -47.2550507      -3.12222195      -20.0000000       23.9397831       1.29760038E-02
  -54.5736809       4.04919481      -20.0000000       6.16285944       1.29549527    
  -55.6295395       2.91055298      -20.0000000       6.16285944       1.29549527    
  -56.8836594       3.56473303      -20.0000000       6.16285944       1.29549527    
  -55.8850899       4.68635893      -20.0000000       6.16285944       1.29549527    
  -48.7254105      -3.12169194      -20.0000000       22.0818977      0.325493753    
  -50.1564102      -3.12996602      -20.0000000       22.0818977      0.325493753    
  -50.2854195      -1.59545600      -20.0000000       22.0818977      0.325493753    
  -48.7658615      -1.56390297      -20.0000000       22.0818977      0.325493753    
  -50.2854195      -1.59545600      -20.0000000       19.0848179      0.647270083    
  -51.8859215      -1.67511594      -20.0000000       19.0848179      0.647270083    
  -51.7686501     -0.191007897      -20.0000000       19.0848179      0.647270083    
  -50.2816200      -7.23225027E-02  -20.0000000       19.0848179      0.647270083    
  -55.6295395       2.91055298      -20.0000000       8.56929207       1.31723464    
  -54.5736809       4.04919481      -20.0000000       8.56929207       1.31723464    
  -54.3531990       2.57653904      -20.0000000       8.56929207       1.31723464    
  -54.3531990       2.57653904      -20.0000000       8.56929207       1.31723464    
  -51.6464691       2.90894699      -20.0000000       15.6666803      0.894827008    
  -51.7500000       1.29565406      -20.0000000       15.6666803      0.894827008    
  -53.2043991       1.01675200      -20.0000000       15.6666803      0.894827008    
  -53.0367393       2.70281792      -20.0000000       15.6666803      0.894827008    
  -44.2742119      -6.25000000      -20.0000000       24.0340099     -0.505979538    
  -45.7804108      -6.25000000      -20.0000000       24.0340099     -0.505979538    
  -45.7679100      -4.68779421      -20.0000000       24.0340099     -0.505979538    
  -44.2670212      -4.68766403      -20.0000000       24.0340099     -0.505979538    
  -45.7679100      -4.68779421      -20.0000000       24.1483879     -0.227573663    
  -47.2626686      -4.68801212      -20.0000000       24.1483879     -0.227573663    
  -47.2550507      -3.12222195      -20.0000000       24.1483879     -0.227573663    
  -45.7611885      -3.12411094      -20.0000000       24.1483879     -0.227573663    
  -51.7500000       1.29565406      -20.0000000       19.1368561      0.642776370    
  -50.2459984       1.47492099      -20.0000000       19.1368561      0.642776370    
  -50.2816200      -7.23225027E-02  -20.0000000       19.1368561      0.642776370    
  -51.7686501     -0.191007897      -20.0000000       19.1368561      0.642776370    
  -47.2550507      -3.12222195      -20.0000000       23.5959167       6.66306093E-02
  -48.7254105      -3.12169194      -20.0000000       23.5959167       6.66306093E-02
  -48.7658615      -1.56390297      -20.0000000       23.5959167       6.66306093E-02
  -47.2643318      -1.55986798      -20.0000000       23.5959167       6.66306093E-02
  -48.7658615      -1.56390297      -20.0000000       21.9030190      0.361904413    
  -50.2854195      -1.59545600      -20.0000000       21.9030190      0.361904413    
  -50.2816200      -7.23225027E-02  -20.0000000       21.9030190      0.361904413    
  -48.7753716      -1.42937005E-02  -20.0000000       21.9030190      0.361904413    
  -54.5736809       4.04919481      -20.0000000       11.9196815       1.05150044    
  -53.0954399       4.36336088      -20.0000000       11.9196815       1.05150044    
  -53.0367393       2.70281792      -20.0000000       11.9196815       1.05150044    
  -54.3531990       2.57653904      -20.0000000       11.9196815       1.05150044    
  -54.6465797       5.53822613      -20.0000000       9.00005341      0.879657686    
  -54.5736809       4.04919481      -20.0000000       9.00005341      0.879657686    
  -55.8850899       4.68635893      -20.0000000       9.00005341      0.879657686    
  -55.8850899       4.68635893      -20.0000000       9.00005341      0.879657686    
  -44.2670212      -4.68766403      -20.0000000       21.3217850     -0.685957670    
  -42.7620697      -4.68767691      -20.0000000       21.3217850     -0.685957670    
  -42.7680206      -6.25000000      -20.0000000       21.3217850     -0.685957670    
  -44.2742119      -6.25000000      -20.0000000       21.3217850     -0.685957670    
  -44.2670212      -4.68766403      -20.0000000       22.8018112     -0.466650397    
  -45.7679100      -4.68779421      -20.0000000       22.8018112     -0.466650397    
  -45.7611885      -3.12411094      -20.0000000       22.8018112     -0.466650397    
  -44.2611694      -3.12488103      -20.0000000       22.8018112     -0.466650397    
  -45.7611885      -3.12411094      -20.0000000       23.6456089     -0.189973712    
  -47.2550507      -3.12222195      -20.0000000       23.6456089     -0.189973712    
  -47.2643318      -1.55986798      -20.0000000       23.6456089     -0.189973712    
  -45.7603798      -1.56126106      -20.0000000       23.6456089     -0.189973712    
  -50.2459984       1.47492099      -20.0000000       19.2896118      0.601476550    
  -51.7500000       1.29565406      -20.0000000       19.2896118      0.601476550    
  -51.6464691       2.90894699      -20.0000000       19.2896118      0.601476550    
  -50.2011604       3.04989505      -20.0000000       19.2896118      0.601476550    
  -54.6465797       5.53822613      -20.0000000       12.3562727      0.760613143    
  -53.2416306       6.06926107      -20.0000000       12.3562727      0.760613143    
  -53.0954399       4.36336088      -20.0000000       12.3562727      0.760613143    
  -54.5736809       4.04919481      -20.0000000       12.3562727      0.760613143    
  -47.2643318      -1.55986798      -20.0000000       23.4106121       9.17737782E-02
  -48.7658615      -1.56390297      -20.0000000       23.4106121       9.17737782E-02
  -48.7753716      -1.42937005E-02  -20.0000000       23.4106121       9.17737782E-02
  -47.2657204       0.00000000      -20.0000000       23.4106121       9.17737782E-02
  -48.7753716      -1.42937005E-02  -20.0000000       21.9075565      0.360894412    
  -50.2816200      -7.23225027E-02  -20.0000000       21.9075565      0.360894412    
  -50.2459984       1.47492099      -20.0000000       21.9075565      0.360894412    
  -48.7560692       1.53868604      -20.0000000       21.9075565      0.360894412    
  -51.6464691       2.90894699      -20.0000000       15.9332113      0.774946988    
  -53.0367393       2.70281792      -20.0000000       15.9332113      0.774946988    
  -53.0954399       4.36336088      -20.0000000       15.9332113      0.774946988    
  -51.6648903       4.56408405      -20.0000000       15.9332113      0.774946988    
  -41.2618294      -6.25000000      -20.0000000       16.8663769     -0.840134501    
  -42.7680206      -6.25000000      -20.0000000       16.8663769     -0.840134501    
  -42.7620697      -4.68767691      -20.0000000       16.8663769     -0.840134501    
  -41.2566490      -4.68782711      -20.0000000       16.8663769     -0.840134501    
  -44.2611694      -3.12488103      -20.0000000       19.8400574     -0.705883384    
  -42.7563400      -3.12513494      -20.0000000       19.8400574     -0.705883384    
  -42.7620697      -4.68767691      -20.0000000       19.8400574     -0.705883384    
  -44.2670212      -4.68766403      -20.0000000       19.8400574     -0.705883384    
  -44.2611694      -3.12488103      -20.0000000       22.1200638     -0.448478818    
  -45.7611885      -3.12411094      -20.0000000       22.1200638     -0.448478818    
  -45.7603798      -1.56126106      -20.0000000       22.1200638     -0.448478818    
  -44.2565308      -1.56226599      -20.0000000       22.1200638     -0.448478818    
  -45.7603798      -1.56126106      -20.0000000       23.3956890     -0.173025414    
  -47.2643318      -1.55986798      -20.0000000       23.3956890     -0.173025414    
  -47.2657204       0.00000000      -20.0000000       23.3956890     -0.173025414    
  -45.7582893       0.00000000      -20.0000000       23.3956890     -0.173025414    
  -47.2657204       0.00000000      -20.0000000       23.4053688       9.12140906E-02
  -48.7753716      -1.42937005E-02  -20.0000000       23.4053688       9.12140906E-02
  -48.7560692       1.53868604      -20.0000000       23.4053688       9.12140906E-02
  -47.2535896       1.55706894      -20.0000000       23.4053688       9.12140906E-02
  -48.7560692       1.53868604      -20.0000000       22.0579700      0.327563971    
  -50.2459984       1.47492099      -20.0000000       22.0579700      0.327563971    
  -50.2011604       3.04989505      -20.0000000       22.0579700      0.327563971    
  -48.7281189       3.10503101      -20.0000000       22.0579700      0.327563971    
  -50.2011604       3.04989505      -20.0000000       19.5259323      0.512568533    
  -51.6464691       2.90894699      -20.0000000       19.5259323      0.512568533    
  -51.6648903       4.56408405      -20.0000000       19.5259323      0.512568533    
  -50.2067184       4.64797401      -20.0000000       19.5259323      0.512568533    
  -51.6648903       4.56408405      -20.0000000       16.4404659      0.545767307    
  -53.0954399       4.36336088      -20.0000000       16.4404659      0.545767307    
  -53.2416306       6.06926107      -20.0000000       16.4404659      0.545767307    
  -51.7500000       6.25000000      -20.0000000       16.4404659      0.545767307    
  -39.7556496      -6.25000000      -20.0000000       10.9182606     -0.946357489    
  -41.2618294      -6.25000000      -20.0000000       10.9182606     -0.946357489    
  -41.2566490      -4.68782711      -20.0000000       10.9182606     -0.946357489    
  -39.7507591      -4.68851089      -20.0000000       10.9182606     -0.946357489    
  -41.2566490      -4.68782711      -20.0000000       15.3907423     -0.952087998    
  -42.7620697      -4.68767691      -20.0000000       15.3907423     -0.952087998    
  -42.7563400      -3.12513494      -20.0000000       15.3907423     -0.952087998    
  -41.2511406      -3.12541890      -20.0000000       15.3907423     -0.952087998    
  -44.2565308      -1.56226599      -20.0000000       19.0606232     -0.715786695    
  -42.7509499      -1.56253600      -20.0000000       19.0606232     -0.715786695    
  -42.7563400      -3.12513494      -20.0000000       19.0606232     -0.715786695    
  -44.2611694      -3.12488103      -20.0000000       19.0606232     -0.715786695    
  -44.2565308      -1.56226599      -20.0000000       21.7836800     -0.440506846    
  -45.7603798      -1.56126106      -20.0000000       21.7836800     -0.440506846    
  -45.7582893       0.00000000      -20.0000000       21.7836800     -0.440506846    
  -44.2515602       0.00000000      -20.0000000       21.7836800     -0.440506846    
  -45.7582893       0.00000000      -20.0000000       23.3833580     -0.173892170    
  -47.2657204       0.00000000      -20.0000000       23.3833580     -0.173892170    
  -47.2535896       1.55706894      -20.0000000       23.3833580     -0.173892170    
  -45.7509003       1.56100297      -20.0000000       23.3833580     -0.173892170    
  -47.2535896       1.55706894      -20.0000000       23.5741177       6.57968000E-02
  -48.7560692       1.53868604      -20.0000000       23.5741177       6.57968000E-02
  -48.7281189       3.10503101      -20.0000000       23.5741177       6.57968000E-02
  -47.2370110       3.11982203      -20.0000000       23.5741177       6.57968000E-02
  -48.7281189       3.10503101      -20.0000000       22.3050537      0.258771420    
  -50.2011604       3.04989505      -20.0000000       22.3050537      0.258771420    
  -50.2067184       4.64797401      -20.0000000       22.3050537      0.258771420    
  -48.7241211       4.67746210      -20.0000000       22.3050537      0.258771420    
  -50.2067184       4.64797401      -20.0000000       19.9522266      0.333617210    
  -51.6648903       4.56408405      -20.0000000       19.9522266      0.333617210    
  -51.7500000       6.25000000      -20.0000000       19.9522266      0.333617210    
  -50.2455711       6.25000000      -20.0000000       19.9522266      0.333617210    
  -38.2494698      -6.25000000      -20.0000000       4.18056059     -0.830994308    
  -39.7556496      -6.25000000      -20.0000000       4.18056059     -0.830994308    
  -39.7507591      -4.68851089      -20.0000000       4.18056059     -0.830994308    
  -38.2446404      -4.68936491      -20.0000000       4.18056059     -0.830994308    
  -39.7507591      -4.68851089      -20.0000000       9.75798321      -1.23657012    
  -41.2566490      -4.68782711      -20.0000000       9.75798321      -1.23657012    
  -41.2511406      -3.12541890      -20.0000000       9.75798321      -1.23657012    
  -39.7453995      -3.12673903      -20.0000000       9.75798321      -1.23657012    
  -41.2511406      -3.12541890      -20.0000000       14.7103615      -1.00749946    
  -42.7563400      -3.12513494      -20.0000000       14.7103615      -1.00749946    
  -42.7509499      -1.56253600      -20.0000000       14.7103615      -1.00749946    
  -41.2455711      -1.56282198      -20.0000000       14.7103615      -1.00749946    
  -44.2515602       0.00000000      -20.0000000       18.6925106     -0.720351338    
  -42.7457504       0.00000000      -20.0000000       18.6925106     -0.720351338    
  -42.7509499      -1.56253600      -20.0000000       18.6925106     -0.720351338    
  -44.2565308      -1.56226599      -20.0000000       18.6925106     -0.720351338    
  -44.2515602       0.00000000      -20.0000000       21.7697392     -0.441410512    
  -45.7582893       0.00000000      -20.0000000       21.7697392     -0.441410512    
  -45.7509003       1.56100297      -20.0000000       21.7697392     -0.441410512    
  -44.2452011       1.56199801      -20.0000000       21.7697392     -0.441410512    
  -45.7509003       1.56100297      -20.0000000       23.6049805     -0.192387879    
  -47.2535896       1.55706894      -20.0000000       23.6049805     -0.192387879    
  -47.2370110       3.11982203      -20.0000000       23.6049805     -0.192387879    
  -45.7402802       3.12332392      -20.0000000       23.6049805     -0.192387879    
  -47.2370110       3.11982203      -20.0000000       23.9098415       1.12827979E-02
  -48.7281189       3.10503101      -20.0000000       23.9098415       1.12827979E-02
  -48.7241211       4.67746210      -20.0000000       23.9098415       1.12827979E-02
  -47.2300911       4.68496799      -20.0000000       23.9098415       1.12827979E-02
  -48.7241211       4.67746210      -20.0000000       22.7191410      0.115472861    
  -50.2067184       4.64797401      -20.0000000       22.7191410      0.115472861    
  -50.2455711       6.25000000      -20.0000000       22.7191410      0.115472861    
  -48.7411499       6.25000000      -20.0000000       22.7191410      0.115472861    
  -36.7432899      -6.25000000      -20.0000000       3.73966742       1.25796676    
  -38.2494698      -6.25000000      -20.0000000       3.73966742       1.25796676    
  -38.2446404      -4.68936491      -20.0000000       3.73966742       1.25796676    
  -36.7384796      -4.68897390      -20.0000000       3.73966742       1.25796676    
  -38.2446404      -4.68936491      -20.0000000       3.69262385      -1.80032194    
  -39.7507591      -4.68851089      -20.0000000       3.69262385      -1.80032194    
  -39.7453995      -3.12673903      -20.0000000       3.69262385      -1.80032194    
  -38.2396507      -3.12933803      -20.0000000       3.69262385      -1.80032194    
  -39.7453995      -3.12673903      -20.0000000       9.46536922      -1.37756526    
  -41.2511406      -3.12541890      -20.0000000       9.46536922      -1.37756526    
  -41.2455711      -1.56282198      -20.0000000       9.46536922      -1.37756526    
  -39.7399902      -1.56351995      -20.0000000       9.46536922      -1.37756526    
  -41.2455711      -1.56282198      -20.0000000       14.4050932      -1.03174269    
  -42.7509499      -1.56253600      -20.0000000       14.4050932      -1.03174269    
  -42.7457504       0.00000000      -20.0000000       14.4050932      -1.03174269    
  -41.2401695       0.00000000      -20.0000000       14.4050932      -1.03174269    
  -44.2452011       1.56199801      -20.0000000       18.6752720     -0.721403599    
  -42.7402611       1.56238496      -20.0000000       18.6752720     -0.721403599    
  -42.7457504       0.00000000      -20.0000000       18.6752720     -0.721403599    
  -44.2515602       0.00000000      -20.0000000       18.6752720     -0.721403599    
  -44.2452011       1.56199801      -20.0000000       22.0518913     -0.451647460    
  -45.7509003       1.56100297      -20.0000000       22.0518913     -0.451647460    
  -45.7402802       3.12332392      -20.0000000       22.0518913     -0.451647460    
  -44.2380295       3.12447906      -20.0000000       22.0518913     -0.451647460    
  -45.7402802       3.12332392      -20.0000000       24.1098919     -0.231717572    
  -47.2370110       3.11982203      -20.0000000       24.1098919     -0.231717572    
  -47.2300911       4.68496799      -20.0000000       24.1098919     -0.231717572    
  -45.7329903       4.68700409      -20.0000000       24.1098919     -0.231717572    
  -47.2300911       4.68496799      -20.0000000       24.4734192     -0.102822065    
  -48.7241211       4.67746210      -20.0000000       24.4734192     -0.102822065    
  -48.7411499       6.25000000      -20.0000000       24.4734192     -0.102822065    
  -47.2367287       6.25000000      -20.0000000       24.4734192     -0.102822065    
  -35.2371101      -6.25000000      -20.0000000       9.77478123       1.41664588    
  -36.7432899      -6.25000000      -20.0000000       9.77478123       1.41664588    
  -36.7384796      -4.68897390      -20.0000000       9.77478123       1.41664588    
  -35.2325211      -4.68835878      -20.0000000       9.77478123       1.41664588    
  -36.7384796      -4.68897390      -20.0000000       3.93678379       2.23678041    
  -38.2446404      -4.68936491      -20.0000000       3.93678379       2.23678041    
  -38.2396507      -3.12933803      -20.0000000       3.93678379       2.23678041    
  -36.7339096      -3.12783909      -20.0000000       3.93678379       2.23678041    
  -38.2396507      -3.12933803      -20.0000000       4.43720770      -2.13352108    
  -39.7453995      -3.12673903      -20.0000000       4.43720770      -2.13352108    
  -39.7399902      -1.56351995      -20.0000000       4.43720770      -2.13352108    
  -38.2346497      -1.56438303      -20.0000000       4.43720770      -2.13352108    
  -39.7399902      -1.56351995      -20.0000000       9.37147713      -1.43697953    
  -41.2455711      -1.56282198      -20.0000000       9.37147713      -1.43697953    
  -41.2401695       0.00000000      -20.0000000       9.37147713      -1.43697953    