 VARIABLES="X" "Y" "Z" "abs(p) (Pa)" "angle(p) (rad)"
ZONE N=   3650,E =    3624, F=FEPOINT, ET=QUADRILATERAL
  -56.5164909      -2.47323704      -20.0000000       759.601685       1.77373898    
  -55.4176407      -3.26747894      -20.0000000       759.601685       1.77373898    
  -55.9264717      -4.64953518      -20.0000000       759.601685       1.77373898    
  -56.9148483      -3.51935697      -20.0000000       759.601685       1.77373898    
  -56.9148483      -3.51935697      -20.0000000       612.141907       1.76891482    
  -57.6058807      -2.18402195      -20.0000000       612.141907       1.76891482    
  -56.5164909      -2.47323704      -20.0000000       612.141907       1.76891482    
  -56.5164909      -2.47323704      -20.0000000       612.141907       1.76891482    
  -54.6953812      -5.51239681      -20.0000000       953.043152       1.77400732    
  -55.9264717      -4.64953518      -20.0000000       953.043152       1.77400732    
  -55.4176407      -3.26747894      -20.0000000       953.043152       1.77400732    
  -54.2450790      -3.94889998      -20.0000000       953.043152       1.77400732    
  -54.2450790      -3.94889998      -20.0000000       1122.41956       1.77254558    
  -52.9834785      -4.46340179      -20.0000000       1122.41956       1.77254558    
  -53.2955093      -6.05576801      -20.0000000       1122.41956       1.77254558    
  -54.6953812      -5.51239681      -20.0000000       1122.41956       1.77254558    
  -56.5223999      -1.11500299      -20.0000000       336.161713       1.77864456    
  -56.5164909      -2.47323704      -20.0000000       336.161713       1.77864456    
  -57.6058807      -2.18402195      -20.0000000       336.161713       1.77864456    
  -57.9577713     -0.724482894      -20.0000000       336.161713       1.77864456    
  -56.5164909      -2.47323704      -20.0000000       410.913544       1.79241371    
  -56.5223999      -1.11500299      -20.0000000       410.913544       1.79241371    
  -55.1657600      -1.76926601      -20.0000000       410.913544       1.79241371    
  -55.4176407      -3.26747894      -20.0000000       410.913544       1.79241371    
  -54.2450790      -3.94889998      -20.0000000       534.482971       1.79481077    
  -55.4176407      -3.26747894      -20.0000000       534.482971       1.79481077    
  -55.1657600      -1.76926601      -20.0000000       534.482971       1.79481077    
  -53.8819199      -2.32836604      -20.0000000       534.482971       1.79481077    
  -52.9834785      -4.46340179      -20.0000000       1248.30273       1.77003431    
  -51.6155815      -4.69134283      -20.0000000       1248.30273       1.77003431    
  -51.8049088      -6.24783087      -20.0000000       1248.30273       1.77003431    
  -53.2955093      -6.05576801      -20.0000000       1248.30273       1.77003431    
  -56.3964119      0.254809886      -20.0000000       36.9396362       1.83511412    
  -56.5223999      -1.11500299      -20.0000000       36.9396362       1.83511412    
  -57.9577713     -0.724482894      -20.0000000       36.9396362       1.83511412    
  -57.9511719      0.779103875      -20.0000000       36.9396362       1.83511412    
  -53.8819199      -2.32836604      -20.0000000       657.395630       1.79376841    
  -52.7235603      -2.92538095      -20.0000000       657.395630       1.79376841    
  -52.9834785      -4.46340179      -20.0000000       657.395630       1.79376841    
  -54.2450790      -3.94889998      -20.0000000       657.395630       1.79376841    
  -56.5223999      -1.11500299      -20.0000000       135.048492       1.80686474    
  -56.3964119      0.254809886      -20.0000000       135.048492       1.80686474    
  -54.8835487     -0.325594515      -20.0000000       135.048492       1.80686474    
  -55.1657600      -1.76926601      -20.0000000       135.048492       1.80686474    
  -50.2990494      -6.25000000      -20.0000000       1317.98132       1.76770568    
  -51.8049088      -6.24783087      -20.0000000       1317.98132       1.76770568    
  -51.6155815      -4.69134283      -20.0000000       1317.98132       1.76770568    
  -50.1911316      -4.70199823      -20.0000000       1317.98132       1.76770568    
  -53.8819199      -2.32836604      -20.0000000       229.716019       1.80617952    
  -55.1657600      -1.76926601      -20.0000000       229.716019       1.80617952    
  -54.8835487     -0.325594515      -20.0000000       229.716019       1.80617952    
  -53.3087082     -0.726661325      -20.0000000       229.716019       1.80617952    
  -52.7235603      -2.92538095      -20.0000000       755.421936       1.79147232    
  -51.4683685      -3.18431592      -20.0000000       755.421936       1.79147232    
  -51.6155815      -4.69134283      -20.0000000       755.421936       1.79147232    
  -52.9834785      -4.46340179      -20.0000000       755.421936       1.79147232    
  -56.1067696       1.60355306      -20.0000000       255.387634      -1.37527180    
  -56.3964119      0.254809886      -20.0000000       255.387634      -1.37527180    
  -57.9511719      0.779103875      -20.0000000       255.387634      -1.37527180    
  -57.5863686       2.23558092      -20.0000000       255.387634      -1.37527180    
  -56.3964119      0.254809886      -20.0000000       119.454155      -1.36198425    
  -56.1067696       1.60355306      -20.0000000       119.454155      -1.36198425    
  -54.6488190       1.11988902      -20.0000000       119.454155      -1.36198425    
  -54.8835487     -0.325594515      -20.0000000       119.454155      -1.36198425    
  -51.8859215      -1.67511594      -20.0000000       340.863129       1.80440271    
  -52.7235603      -2.92538095      -20.0000000       340.863129       1.80440271    
  -53.8819199      -2.32836604      -20.0000000       340.863129       1.80440271    
  -53.3087082     -0.726661325      -20.0000000       340.863129       1.80440271    
  -48.7928200      -6.25000000      -20.0000000       1355.45642       1.76625097    
  -50.2990494      -6.25000000      -20.0000000       1355.45642       1.76625097    
  -50.1911316      -4.70199823      -20.0000000       1355.45642       1.76625097    
  -48.7387619      -4.69004917      -20.0000000       1355.45642       1.76625097    
  -50.1911316      -4.70199823      -20.0000000       797.666077       1.78973436    
  -51.6155815      -4.69134283      -20.0000000       797.666077       1.78973436    
  -51.4683685      -3.18431592      -20.0000000       797.666077       1.78973436    
  -50.1564102      -3.12996602      -20.0000000       797.666077       1.78973436    
  -54.6488190       1.11988902      -20.0000000       43.1941643      -1.37634718    
  -53.2043991       1.01675200      -20.0000000       43.1941643      -1.37634718    
  -53.3087082     -0.726661325      -20.0000000       43.1941643      -1.37634718    
  -54.8835487     -0.325594515      -20.0000000       43.1941643      -1.37634718    
  -51.4683685      -3.18431592      -20.0000000       484.010223       1.80052269    
  -52.7235603      -2.92538095      -20.0000000       484.010223       1.80052269    
  -51.8859215      -1.67511594      -20.0000000       484.010223       1.80052269    
  -51.8859215      -1.67511594      -20.0000000       484.010223       1.80052269    
  -55.6295395       2.91055298      -20.0000000       543.261780      -1.37163210    
  -56.1067696       1.60355306      -20.0000000       543.261780      -1.37163210    
  -57.5863686       2.23558092      -20.0000000       543.261780      -1.37163210    
  -56.8836594       3.56473303      -20.0000000       543.261780      -1.37163210    
  -47.2866096      -6.25000000      -20.0000000       1384.04333       1.76568389    
  -48.7928200      -6.25000000      -20.0000000       1384.04333       1.76568389    
  -48.7387619      -4.69004917      -20.0000000       1384.04333       1.76568389    
  -47.2626686      -4.68801212      -20.0000000       1384.04333       1.76568389    
  -48.7387619      -4.69004917      -20.0000000       809.888062       1.78872347    
  -50.1911316      -4.70199823      -20.0000000       809.888062       1.78872347    
  -50.1564102      -3.12996602      -20.0000000       809.888062       1.78872347    
  -48.7254105      -3.12169194      -20.0000000       809.888062       1.78872347    
  -50.1564102      -3.12996602      -20.0000000       445.775635       1.80106044    
  -51.4683685      -3.18431592      -20.0000000       445.775635       1.80106044    
  -51.8859215      -1.67511594      -20.0000000       445.775635       1.80106044    
  -50.2854195      -1.59545600      -20.0000000       445.775635       1.80106044    
  -54.6488190       1.11988902      -20.0000000       377.845276      -1.35357833    
  -56.1067696       1.60355306      -20.0000000       377.845276      -1.35357833    
  -55.6295395       2.91055298      -20.0000000       377.845276      -1.35357833    
  -54.3531990       2.57653904      -20.0000000       377.845276      -1.35357833    
  -51.7686501     -0.191007897      -20.0000000       156.052917       1.81219351    
  -51.8859215      -1.67511594      -20.0000000       156.052917       1.81219351    
  -53.3087082     -0.726661325      -20.0000000       156.052917       1.81219351    
  -53.3087082     -0.726661325      -20.0000000       156.052917       1.81219351    
  -51.7686501     -0.191007897      -20.0000000       57.8278580      -1.36438000    
  -53.3087082     -0.726661325      -20.0000000       57.8278580      -1.36438000    
  -53.2043991       1.01675200      -20.0000000       57.8278580      -1.36438000    
  -51.7500000       1.29565406      -20.0000000       57.8278580      -1.36438000    
  -53.0367393       2.70281792      -20.0000000       331.097870      -1.34778011    
  -53.2043991       1.01675200      -20.0000000       331.097870      -1.34778011    
  -54.6488190       1.11988902      -20.0000000       331.097870      -1.34778011    
  -54.3531990       2.57653904      -20.0000000       331.097870      -1.34778011    
  -45.7804108      -6.25000000      -20.0000000       1404.14783       1.76600993    
  -47.2866096      -6.25000000      -20.0000000       1404.14783       1.76600993    
  -47.2626686      -4.68801212      -20.0000000       1404.14783       1.76600993    
  -45.7679100      -4.68779421      -20.0000000       1404.14783       1.76600993    
  -47.2626686      -4.68801212      -20.0000000       825.781860       1.78793776    
  -48.7387619      -4.69004917      -20.0000000       825.781860       1.78793776    
  -48.7254105      -3.12169194      -20.0000000       825.781860       1.78793776    
  -47.2550507      -3.12222195      -20.0000000       825.781860       1.78793776    
  -54.5736809       4.04919481      -20.0000000       818.235046      -1.37097836    
  -55.6295395       2.91055298      -20.0000000       818.235046      -1.37097836    
  -56.8836594       3.56473303      -20.0000000       818.235046      -1.37097836    
  -55.8850899       4.68635893      -20.0000000       818.235046      -1.37097836    
  -48.7254105      -3.12169194      -20.0000000       450.613190       1.79998827    
  -50.1564102      -3.12996602      -20.0000000       450.613190       1.79998827    
  -50.2854195      -1.59545600      -20.0000000       450.613190       1.79998827    
  -48.7658615      -1.56390297      -20.0000000       450.613190       1.79998827    
  -50.2854195      -1.59545600      -20.0000000       162.609238       1.81216347    
  -51.8859215      -1.67511594      -20.0000000       162.609238       1.81216347    
  -51.7686501     -0.191007897      -20.0000000       162.609238       1.81216347    
  -50.2816200      -7.23225027E-02  -20.0000000       162.609238       1.81216347    
  -55.6295395       2.91055298      -20.0000000       611.606384      -1.35568678    
  -54.5736809       4.04919481      -20.0000000       611.606384      -1.35568678    
  -54.3531990       2.57653904      -20.0000000       611.606384      -1.35568678    
  -54.3531990       2.57653904      -20.0000000       611.606384      -1.35568678    
  -51.6464691       2.90894699      -20.0000000       358.442078      -1.34654653    
  -51.7500000       1.29565406      -20.0000000       358.442078      -1.34654653    
  -53.2043991       1.01675200      -20.0000000       358.442078      -1.34654653    
  -53.0367393       2.70281792      -20.0000000       358.442078      -1.34654653    
  -44.2742119      -6.25000000      -20.0000000       1416.31653       1.76706219    
  -45.7804108      -6.25000000      -20.0000000       1416.31653       1.76706219    
  -45.7679100      -4.68779421      -20.0000000       1416.31653       1.76706219    
  -44.2670212      -4.68766403      -20.0000000       1416.31653       1.76706219    
  -45.7679100      -4.68779421      -20.0000000       839.411621       1.78789997    
  -47.2626686      -4.68801212      -20.0000000       839.411621       1.78789997    
  -47.2550507      -3.12222195      -20.0000000       839.411621       1.78789997    
  -45.7611885      -3.12411094      -20.0000000       839.411621       1.78789997    
  -51.7500000       1.29565406      -20.0000000       112.715775      -1.35352719    
  -50.2459984       1.47492099      -20.0000000       112.715775      -1.35352719    
  -50.2816200      -7.23225027E-02  -20.0000000       112.715775      -1.35352719    
  -51.7686501     -0.191007897      -20.0000000       112.715775      -1.35352719    
  -47.2550507      -3.12222195      -20.0000000       458.914612       1.79915524    
  -48.7254105      -3.12169194      -20.0000000       458.914612       1.79915524    
  -48.7658615      -1.56390297      -20.0000000       458.914612       1.79915524    
  -47.2643318      -1.55986798      -20.0000000       458.914612       1.79915524    
  -48.7658615      -1.56390297      -20.0000000       151.213989       1.81194770    
  -50.2854195      -1.59545600      -20.0000000       151.213989       1.81194770    
  -50.2816200      -7.23225027E-02  -20.0000000       151.213989       1.81194770    
  -48.7753716      -1.42937005E-02  -20.0000000       151.213989       1.81194770    
  -54.5736809       4.04919481      -20.0000000       658.936035      -1.35325766    
  -53.0954399       4.36336088      -20.0000000       658.936035      -1.35325766    
  -53.0367393       2.70281792      -20.0000000       658.936035      -1.35325766    
  -54.3531990       2.57653904      -20.0000000       658.936035      -1.35325766    
  -54.6465797       5.53822613      -20.0000000       1087.48804      -1.37647474    
  -54.5736809       4.04919481      -20.0000000       1087.48804      -1.37647474    
  -55.8850899       4.68635893      -20.0000000       1087.48804      -1.37647474    
  -55.8850899       4.68635893      -20.0000000       1087.48804      -1.37647474    
  -44.2670212      -4.68766403      -20.0000000       1422.03516       1.76864362    
  -42.7620697      -4.68767691      -20.0000000       1422.03516       1.76864362    
  -42.7680206      -6.25000000      -20.0000000       1422.03516       1.76864362    
  -44.2742119      -6.25000000      -20.0000000       1422.03516       1.76864362    
  -44.2670212      -4.68766403      -20.0000000       848.943298       1.78862345    
  -45.7679100      -4.68779421      -20.0000000       848.943298       1.78862345    
  -45.7611885      -3.12411094      -20.0000000       848.943298       1.78862345    
  -44.2611694      -3.12488103      -20.0000000       848.943298       1.78862345    
  -45.7611885      -3.12411094      -20.0000000       467.107391       1.79895580    
  -47.2550507      -3.12222195      -20.0000000       467.107391       1.79895580    
  -47.2643318      -1.55986798      -20.0000000       467.107391       1.79895580    
  -45.7603798      -1.56126106      -20.0000000       467.107391       1.79895580    
  -50.2459984       1.47492099      -20.0000000       405.138153      -1.34747767    
  -51.7500000       1.29565406      -20.0000000       405.138153      -1.34747767    
  -51.6464691       2.90894699      -20.0000000       405.138153      -1.34747767    
  -50.2011604       3.04989505      -20.0000000       405.138153      -1.34747767    
  -54.6465797       5.53822613      -20.0000000       1115.37964      -1.37173343    
  -53.2416306       6.06926107      -20.0000000       1115.37964      -1.37173343    
  -53.0954399       4.36336088      -20.0000000       1115.37964      -1.37173343    
  -54.5736809       4.04919481      -20.0000000       1115.37964      -1.37173343    
  -47.2643318      -1.55986798      -20.0000000       149.029221       1.81119049    
  -48.7658615      -1.56390297      -20.0000000       149.029221       1.81119049    
  -48.7753716      -1.42937005E-02  -20.0000000       149.029221       1.81119049    
  -47.2657204       0.00000000      -20.0000000       149.029221       1.81119049    
  -48.7753716      -1.42937005E-02  -20.0000000       134.449966      -1.35261929    
  -50.2816200      -7.23225027E-02  -20.0000000       134.449966      -1.35261929    
  -50.2459984       1.47492099      -20.0000000       134.449966      -1.35261929    
  -48.7560692       1.53868604      -20.0000000       134.449966      -1.35261929    
  -51.6464691       2.90894699      -20.0000000       706.928833      -1.35314703    
  -53.0367393       2.70281792      -20.0000000       706.928833      -1.35314703    
  -53.0954399       4.36336088      -20.0000000       706.928833      -1.35314703    
  -51.6648903       4.56408405      -20.0000000       706.928833      -1.35314703    
  -41.2618294      -6.25000000      -20.0000000       1423.41736       1.77056992    
  -42.7680206      -6.25000000      -20.0000000       1423.41736       1.77056992    
  -42.7620697      -4.68767691      -20.0000000       1423.41736       1.77056992    
  -41.2566490      -4.68782711      -20.0000000       1423.41736       1.77056992    
  -44.2611694      -3.12488103      -20.0000000       854.584534       1.78997111    
  -42.7563400      -3.12513494      -20.0000000       854.584534       1.78997111    
  -42.7620697      -4.68767691      -20.0000000       854.584534       1.78997111    
  -44.2670212      -4.68766403      -20.0000000       854.584534       1.78997111    
  -44.2611694      -3.12488103      -20.0000000       473.210724       1.79948509    
  -45.7611885      -3.12411094      -20.0000000       473.210724       1.79948509    
  -45.7603798      -1.56126106      -20.0000000       473.210724       1.79948509    
  -44.2565308      -1.56226599      -20.0000000       473.210724       1.79948509    
  -45.7603798      -1.56126106      -20.0000000       150.916397       1.81077695    
  -47.2643318      -1.55986798      -20.0000000       150.916397       1.81077695    
  -47.2657204       0.00000000      -20.0000000       150.916397       1.81077695    
  -45.7582893       0.00000000      -20.0000000       150.916397       1.81077695    
  -47.2657204       0.00000000      -20.0000000       144.779816      -1.35251367    
  -48.7753716      -1.42937005E-02  -20.0000000       144.779816      -1.35251367    
  -48.7560692       1.53868604      -20.0000000       144.779816      -1.35251367    
  -47.2535896       1.55706894      -20.0000000       144.779816      -1.35251367    
  -48.7560692       1.53868604      -20.0000000       437.776947      -1.34879041    
  -50.2459984       1.47492099      -20.0000000       437.776947      -1.34879041    
  -50.2011604       3.04989505      -20.0000000       437.776947      -1.34879041    
  -48.7281189       3.10503101      -20.0000000       437.776947      -1.34879041    
  -50.2011604       3.04989505      -20.0000000       758.930237      -1.35500228    
  -51.6464691       2.90894699      -20.0000000       758.930237      -1.35500228    
  -51.6648903       4.56408405      -20.0000000       758.930237      -1.35500228    
  -50.2067184       4.64797401      -20.0000000       758.930237      -1.35500228    
  -51.6648903       4.56408405      -20.0000000       1223.23682      -1.37351799    
  -53.0954399       4.36336088      -20.0000000       1223.23682      -1.37351799    
  -53.2416306       6.06926107      -20.0000000       1223.23682      -1.37351799    
  -51.7500000       6.25000000      -20.0000000       1223.23682      -1.37351799    
  -39.7556496      -6.25000000      -20.0000000       1421.91699       1.77270782    
  -41.2618294      -6.25000000      -20.0000000       1421.91699       1.77270782    
  -41.2566490      -4.68782711      -20.0000000       1421.91699       1.77270782    
  -39.7507591      -4.68851089      -20.0000000       1421.91699       1.77270782    
  -41.2566490      -4.68782711      -20.0000000       857.300598       1.79177308    
  -42.7620697      -4.68767691      -20.0000000       857.300598       1.79177308    
  -42.7563400      -3.12513494      -20.0000000       857.300598       1.79177308    
  -41.2511406      -3.12541890      -20.0000000       857.300598       1.79177308    
  -44.2565308      -1.56226599      -20.0000000       477.040710       1.80067062    
  -42.7509499      -1.56253600      -20.0000000       477.040710       1.80067062    
  -42.7563400      -3.12513494      -20.0000000       477.040710       1.80067062    
  -44.2611694      -3.12488103      -20.0000000       477.040710       1.80067062    
  -44.2565308      -1.56226599      -20.0000000       153.028885       1.81102741    
  -45.7603798      -1.56126106      -20.0000000       153.028885       1.81102741    
  -45.7582893       0.00000000      -20.0000000       153.028885       1.81102741    
  -44.2515602       0.00000000      -20.0000000       153.028885       1.81102741    
  -45.7582893       0.00000000      -20.0000000       148.714523      -1.35192609    
  -47.2657204       0.00000000      -20.0000000       148.714523      -1.35192609    
  -47.2535896       1.55706894      -20.0000000       148.714523      -1.35192609    
  -45.7509003       1.56100297      -20.0000000       148.714523      -1.35192609    
  -47.2535896       1.55706894      -20.0000000       454.979370      -1.34949994    
  -48.7560692       1.53868604      -20.0000000       454.979370      -1.34949994    
  -48.7281189       3.10503101      -20.0000000       454.979370      -1.34949994    
  -47.2370110       3.11982203      -20.0000000       454.979370      -1.34949994    
  -48.7281189       3.10503101      -20.0000000       797.505371      -1.35678279    
  -50.2011604       3.04989505      -20.0000000       797.505371      -1.35678279    
  -50.2067184       4.64797401      -20.0000000       797.505371      -1.35678279    
  -48.7241211       4.67746210      -20.0000000       797.505371      -1.35678279    
  -50.2067184       4.64797401      -20.0000000       1297.11499      -1.37597466    
  -51.6648903       4.56408405      -20.0000000       1297.11499      -1.37597466    
  -51.7500000       6.25000000      -20.0000000       1297.11499      -1.37597466    
  -50.2455711       6.25000000      -20.0000000       1297.11499      -1.37597466    
  -38.2494698      -6.25000000      -20.0000000       1418.88904       1.77494240    
  -39.7556496      -6.25000000      -20.0000000       1418.88904       1.77494240    
  -39.7507591      -4.68851089      -20.0000000       1418.88904       1.77494240    
  -38.2446404      -4.68936491      -20.0000000       1418.88904       1.77494240    
  -39.7507591      -4.68851089      -20.0000000       858.173035       1.79384875    
  -41.2566490      -4.68782711      -20.0000000       858.173035       1.79384875    
  -41.2511406      -3.12541890      -20.0000000       858.173035       1.79384875    
  -39.7453995      -3.12673903      -20.0000000       858.173035       1.79384875    
  -41.2511406      -3.12541890      -20.0000000       479.217712       1.80231667    
  -42.7563400      -3.12513494      -20.0000000       479.217712       1.80231667    
  -42.7509499      -1.56253600      -20.0000000       479.217712       1.80231667    
  -41.2455711      -1.56282198      -20.0000000       479.217712       1.80231667    
  -44.2515602       0.00000000      -20.0000000       154.421295       1.81201732    
  -42.7457504       0.00000000      -20.0000000       154.421295       1.81201732    
  -42.7509499      -1.56253600      -20.0000000       154.421295       1.81201732    
  -44.2565308      -1.56226599      -20.0000000       154.421295       1.81201732    
  -44.2515602       0.00000000      -20.0000000       150.674271      -1.35097218    
  -45.7582893       0.00000000      -20.0000000       150.674271      -1.35097218    
  -45.7509003       1.56100297      -20.0000000       150.674271      -1.35097218    
  -44.2452011       1.56199801      -20.0000000       150.674271      -1.35097218    
  -45.7509003       1.56100297      -20.0000000       464.633606      -1.34943950    
  -47.2535896       1.55706894      -20.0000000       464.633606      -1.34943950    
  -47.2370110       3.11982203      -20.0000000       464.633606      -1.34943950    
  -45.7402802       3.12332392      -20.0000000       464.633606      -1.34943950    
  -47.2370110       3.11982203      -20.0000000       821.764160      -1.35765636    
  -48.7281189       3.10503101      -20.0000000       821.764160      -1.35765636    
  -48.7241211       4.67746210      -20.0000000       821.764160      -1.35765636    
  -47.2300911       4.68496799      -20.0000000       821.764160      -1.35765636    
  -48.7241211       4.67746210      -20.0000000       1346.58691      -1.37777829    
  -50.2067184       4.64797401      -20.0000000       1346.58691      -1.37777829    
  -50.2455711       6.25000000      -20.0000000       1346.58691      -1.37777829    
  -48.7411499       6.25000000      -20.0000000       1346.58691      -1.37777829    
  -36.7432899      -6.25000000      -20.0000000       1414.91858       1.77721059    
  -38.2494698      -6.25000000      -20.0000000       1414.91858       1.77721059    
  -38.2446404      -4.68936491      -20.0000000       1414.91858       1.77721059    
  -36.7384796      -4.68897390      -20.0000000       1414.91858       1.77721059    
  -38.2446404      -4.68936491      -20.0000000       858.020203       1.79607737    
  -39.7507591      -4.68851089      -20.0000000       858.020203       1.79607737    
  -39.7453995      -3.12673903      -20.0000000       858.020203       1.79607737    
  -38.2396507      -3.12933803      -20.0000000       858.020203       1.79607737    
  -39.7453995      -3.12673903      -20.0000000       480.255981       1.80430603    
  -41.2511406      -3.12541890      -20.0000000       480.255981       1.80430603    
  -41.2455711      -1.56282198      -20.0000000       480.255981       1.80430603    
  -39.7399902      -1.56351995      -20.0000000       480.255981       1.80430603    
  -41.2455711      -1.56282198      -20.0000000       155.234818       1.81350243    
  -42.7509499      -1.56253600      -20.0000000       155.234818       1.81350243    
  -42.7457504       0.00000000      -20.0000000       155.234818       1.81350243    
  -41.2401695       0.00000000      -20.0000000       155.234818       1.81350243    
  -44.2452011       1.56199801      -20.0000000       151.650345      -1.34931874    
  -42.7402611       1.56238496      -20.0000000       151.650345      -1.34931874    
  -42.7457504       0.00000000      -20.0000000       151.650345      -1.34931874    
  -44.2515602       0.00000000      -20.0000000       151.650345      -1.34931874    
  -44.2452011       1.56199801      -20.0000000       470.460846      -1.34865534    
  -45.7509003       1.56100297      -20.0000000       470.460846      -1.34865534    
  -45.7402802       3.12332392      -20.0000000       470.460846      -1.34865534    
  -44.2380295       3.12447906      -20.0000000       470.460846      -1.34865534    
  -45.7402802       3.12332392      -20.0000000       836.762512      -1.35756886    
  -47.2370110       3.11982203      -20.0000000       836.762512      -1.35756886    
  -47.2300911       4.68496799      -20.0000000       836.762512      -1.35756886    
  -45.7329903       4.68700409      -20.0000000       836.762512      -1.35756886    
  -47.2300911       4.68496799      -20.0000000       1380.25891      -1.37838829    
  -48.7241211       4.67746210      -20.0000000       1380.25891      -1.37838829    
  -48.7411499       6.25000000      -20.0000000       1380.25891      -1.37838829    
  -47.2367287       6.25000000      -20.0000000       1380.25891      -1.37838829    
  -35.2371101      -6.25000000      -20.0000000       1410.63098       1.77944779    
  -36.7432899      -6.25000000      -20.0000000       1410.63098       1.77944779    
  -36.7384796      -4.68897390      -20.0000000       1410.63098       1.77944779    
  -35.2325211      -4.68835878      -20.0000000       1410.63098       1.77944779    
  -36.7384796      -4.68897390      -20.0000000       856.756226       1.79840648    
  -38.2446404      -4.68936491      -20.0000000       856.756226       1.79840648    
  -38.2396507      -3.12933803      -20.0000000       856.756226       1.79840648    
  -36.7339096      -3.12783909      -20.0000000       856.756226       1.79840648    
  -38.2396507      -3.12933803      -20.0000000       480.692566       1.80648315    
  -39.7453995      -3.12673903      -20.0000000       480.692566       1.80648315    
  -39.7399902      -1.56351995      -20.0000000       480.692566       1.80648315    
  -38.2346497      -1.56438303      -20.0000000       480.692566       1.80648315    
  -39.7399902      -1.56351995      -20.0000000       155.716293       1.81531072    
  -41.2455711      -1.56282198      -20.0000000       155.716293       1.81531072    
  -41.2401695       0.00000000      -20.0000000       155.716293       1.81531072    