 VARIABLES="X" "Y" "Z" "abs(p) (Pa)" "angle(p) (rad)"
ZONE N=   3650,E =    3624, F=FEPOINT, ET=QUADRILATERAL
  -56.5164909      -2.47323704      -20.0000000       143952.844      -1.57052708    
  -55.4176407      -3.26747894      -20.0000000       143952.844      -1.57052708    
  -55.9264717      -4.64953518      -20.0000000       143952.844      -1.57052708    
  -56.9148483      -3.51935697      -20.0000000       143952.844      -1.57052708    
  -56.9148483      -3.51935697      -20.0000000       117480.656      -1.57051337    
  -57.6058807      -2.18402195      -20.0000000       117480.656      -1.57051337    
  -56.5164909      -2.47323704      -20.0000000       117480.656      -1.57051337    
  -56.5164909      -2.47323704      -20.0000000       117480.656      -1.57051337    
  -54.6953812      -5.51239681      -20.0000000       179324.500      -1.57056928    
  -55.9264717      -4.64953518      -20.0000000       179324.500      -1.57056928    
  -55.4176407      -3.26747894      -20.0000000       179324.500      -1.57056928    
  -54.2450790      -3.94889998      -20.0000000       179324.500      -1.57056928    
  -54.2450790      -3.94889998      -20.0000000       209848.016      -1.57062399    
  -52.9834785      -4.46340179      -20.0000000       209848.016      -1.57062399    
  -53.2955093      -6.05576801      -20.0000000       209848.016      -1.57062399    
  -54.6953812      -5.51239681      -20.0000000       209848.016      -1.57062399    
  -56.5223999      -1.11500299      -20.0000000       63758.5273      -1.57047820    
  -56.5164909      -2.47323704      -20.0000000       63758.5273      -1.57047820    
  -57.6058807      -2.18402195      -20.0000000       63758.5273      -1.57047820    
  -57.9577713     -0.724482894      -20.0000000       63758.5273      -1.57047820    
  -56.5164909      -2.47323704      -20.0000000       75510.1328      -1.57047462    
  -56.5223999      -1.11500299      -20.0000000       75510.1328      -1.57047462    
  -55.1657600      -1.76926601      -20.0000000       75510.1328      -1.57047462    
  -55.4176407      -3.26747894      -20.0000000       75510.1328      -1.57047462    
  -54.2450790      -3.94889998      -20.0000000       96920.2656      -1.57052374    
  -55.4176407      -3.26747894      -20.0000000       96920.2656      -1.57052374    
  -55.1657600      -1.76926601      -20.0000000       96920.2656      -1.57052374    
  -53.8819199      -2.32836604      -20.0000000       96920.2656      -1.57052374    
  -52.9834785      -4.46340179      -20.0000000       231671.234      -1.57068455    
  -51.6155815      -4.69134283      -20.0000000       231671.234      -1.57068455    
  -51.8049088      -6.24783087      -20.0000000       231671.234      -1.57068455    
  -53.2955093      -6.05576801      -20.0000000       231671.234      -1.57068455    
  -56.3964119      0.254809886      -20.0000000       6749.31738      -1.57042122    
  -56.5223999      -1.11500299      -20.0000000       6749.31738      -1.57042122    
  -57.9577713     -0.724482894      -20.0000000       6749.31738      -1.57042122    
  -57.9511719      0.779103875      -20.0000000       6749.31738      -1.57042122    
  -53.8819199      -2.32836604      -20.0000000       118221.570      -1.57059371    
  -52.7235603      -2.92538095      -20.0000000       118221.570      -1.57059371    
  -52.9834785      -4.46340179      -20.0000000       118221.570      -1.57059371    
  -54.2450790      -3.94889998      -20.0000000       118221.570      -1.57059371    
  -56.5223999      -1.11500299      -20.0000000       24476.8281      -1.57044971    
  -56.3964119      0.254809886      -20.0000000       24476.8281      -1.57044971    
  -54.8835487     -0.325594515      -20.0000000       24476.8281      -1.57044971    
  -55.1657600      -1.76926601      -20.0000000       24476.8281      -1.57044971    
  -50.2990494      -6.25000000      -20.0000000       241926.594      -1.57074594    
  -51.8049088      -6.24783087      -20.0000000       241926.594      -1.57074594    
  -51.6155815      -4.69134283      -20.0000000       241926.594      -1.57074594    
  -50.1911316      -4.70199823      -20.0000000       241926.594      -1.57074594    
  -53.8819199      -2.32836604      -20.0000000       40966.1602      -1.57051253    
  -55.1657600      -1.76926601      -20.0000000       40966.1602      -1.57051253    
  -54.8835487     -0.325594515      -20.0000000       40966.1602      -1.57051253    
  -53.3087082     -0.726661325      -20.0000000       40966.1602      -1.57051253    
  -52.7235603      -2.92538095      -20.0000000       134773.109      -1.57067275    
  -51.4683685      -3.18431592      -20.0000000       134773.109      -1.57067275    
  -51.6155815      -4.69134283      -20.0000000       134773.109      -1.57067275    
  -52.9834785      -4.46340179      -20.0000000       134773.109      -1.57067275    
  -56.1067696       1.60355306      -20.0000000       48630.0820       1.57111490    
  -56.3964119      0.254809886      -20.0000000       48630.0820       1.57111490    
  -57.9511719      0.779103875      -20.0000000       48630.0820       1.57111490    
  -57.5863686       2.23558092      -20.0000000       48630.0820       1.57111490    
  -56.3964119      0.254809886      -20.0000000       21838.3594       1.57113004    
  -56.1067696       1.60355306      -20.0000000       21838.3594       1.57113004    
  -54.6488190       1.11988902      -20.0000000       21838.3594       1.57113004    
  -54.8835487     -0.325594515      -20.0000000       21838.3594       1.57113004    
  -51.8859215      -1.67511594      -20.0000000       60089.7695      -1.57060230    
  -52.7235603      -2.92538095      -20.0000000       60089.7695      -1.57060230    
  -53.8819199      -2.32836604      -20.0000000       60089.7695      -1.57060230    
  -53.3087082     -0.726661325      -20.0000000       60089.7695      -1.57060230    
  -48.7928200      -6.25000000      -20.0000000       244973.953      -1.57080400    
  -50.2990494      -6.25000000      -20.0000000       244973.953      -1.57080400    
  -50.1911316      -4.70199823      -20.0000000       244973.953      -1.57080400    
  -48.7387619      -4.69004917      -20.0000000       244973.953      -1.57080400    
  -50.1911316      -4.70199823      -20.0000000       140712.953      -1.57075381    
  -51.6155815      -4.69134283      -20.0000000       140712.953      -1.57075381    
  -51.4683685      -3.18431592      -20.0000000       140712.953      -1.57075381    
  -50.1564102      -3.12996602      -20.0000000       140712.953      -1.57075381    
  -54.6488190       1.11988902      -20.0000000       7756.70996       1.57107878    
  -53.2043991       1.01675200      -20.0000000       7756.70996       1.57107878    
  -53.3087082     -0.726661325      -20.0000000       7756.70996       1.57107878    
  -54.8835487     -0.325594515      -20.0000000       7756.70996       1.57107878    
  -51.4683685      -3.18431592      -20.0000000       84982.8750      -1.57067585    
  -52.7235603      -2.92538095      -20.0000000       84982.8750      -1.57067585    
  -51.8859215      -1.67511594      -20.0000000       84982.8750      -1.57067585    
  -51.8859215      -1.67511594      -20.0000000       84982.8750      -1.57067585    
  -55.6295395       2.91055298      -20.0000000       103096.633       1.57109296    
  -56.1067696       1.60355306      -20.0000000       103096.633       1.57109296    
  -57.5863686       2.23558092      -20.0000000       103096.633       1.57109296    
  -56.8836594       3.56473303      -20.0000000       103096.633       1.57109296    
  -47.2866096      -6.25000000      -20.0000000       245344.203      -1.57085276    
  -48.7928200      -6.25000000      -20.0000000       245344.203      -1.57085276    
  -48.7387619      -4.69004917      -20.0000000       245344.203      -1.57085276    
  -47.2626686      -4.68801212      -20.0000000       245344.203      -1.57085276    
  -48.7387619      -4.69004917      -20.0000000       140757.844      -1.57083058    
  -50.1911316      -4.70199823      -20.0000000       140757.844      -1.57083058    
  -50.1564102      -3.12996602      -20.0000000       140757.844      -1.57083058    
  -48.7254105      -3.12169194      -20.0000000       140757.844      -1.57083058    
  -50.1564102      -3.12996602      -20.0000000       77347.0859      -1.57075155    
  -51.4683685      -3.18431592      -20.0000000       77347.0859      -1.57075155    
  -51.8859215      -1.67511594      -20.0000000       77347.0859      -1.57075155    
  -50.2854195      -1.59545600      -20.0000000       77347.0859      -1.57075155    
  -54.6488190       1.11988902      -20.0000000       68849.9844       1.57110345    
  -56.1067696       1.60355306      -20.0000000       68849.9844       1.57110345    
  -55.6295395       2.91055298      -20.0000000       68849.9844       1.57110345    
  -54.3531990       2.57653904      -20.0000000       68849.9844       1.57110345    
  -51.7686501     -0.191007897      -20.0000000       27175.6738      -1.57064736    
  -51.8859215      -1.67511594      -20.0000000       27175.6738      -1.57064736    
  -53.3087082     -0.726661325      -20.0000000       27175.6738      -1.57064736    
  -53.3087082     -0.726661325      -20.0000000       27175.6738      -1.57064736    
  -51.7686501     -0.191007897      -20.0000000       10183.0830       1.57096899    
  -53.3087082     -0.726661325      -20.0000000       10183.0830       1.57096899    
  -53.2043991       1.01675200      -20.0000000       10183.0830       1.57096899    
  -51.7500000       1.29565406      -20.0000000       10183.0830       1.57096899    
  -53.0367393       2.70281792      -20.0000000       59091.2812       1.57104468    
  -53.2043991       1.01675200      -20.0000000       59091.2812       1.57104468    
  -54.6488190       1.11988902      -20.0000000       59091.2812       1.57104468    
  -54.3531990       2.57653904      -20.0000000       59091.2812       1.57104468    
  -45.7804108      -6.25000000      -20.0000000       243269.906      -1.57088900    
  -47.2866096      -6.25000000      -20.0000000       243269.906      -1.57088900    
  -47.2626686      -4.68801212      -20.0000000       243269.906      -1.57088900    
  -45.7679100      -4.68779421      -20.0000000       243269.906      -1.57088900    
  -47.2626686      -4.68801212      -20.0000000       140984.094      -1.57089424    
  -48.7387619      -4.69004917      -20.0000000       140984.094      -1.57089424    
  -48.7254105      -3.12169194      -20.0000000       140984.094      -1.57089424    
  -47.2550507      -3.12222195      -20.0000000       140984.094      -1.57089424    
  -54.5736809       4.04919481      -20.0000000       154580.609       1.57105231    
  -55.6295395       2.91055298      -20.0000000       154580.609       1.57105231    
  -56.8836594       3.56473303      -20.0000000       154580.609       1.57105231    
  -55.8850899       4.68635893      -20.0000000       154580.609       1.57105231    
  -48.7254105      -3.12169194      -20.0000000       76989.0078      -1.57084882    
  -50.1564102      -3.12996602      -20.0000000       76989.0078      -1.57084882    
  -50.2854195      -1.59545600      -20.0000000       76989.0078      -1.57084882    
  -48.7658615      -1.56390297      -20.0000000       76989.0078      -1.57084882    
  -50.2854195      -1.59545600      -20.0000000       27927.5742      -1.57074594    
  -51.8859215      -1.67511594      -20.0000000       27927.5742      -1.57074594    
  -51.7686501     -0.191007897      -20.0000000       27927.5742      -1.57074594    
  -50.2816200      -7.23225027E-02  -20.0000000       27927.5742      -1.57074594    
  -55.6295395       2.91055298      -20.0000000       111801.688       1.57106376    
  -54.5736809       4.04919481      -20.0000000       111801.688       1.57106376    
  -54.3531990       2.57653904      -20.0000000       111801.688       1.57106376    
  -54.3531990       2.57653904      -20.0000000       111801.688       1.57106376    
  -51.6464691       2.90894699      -20.0000000       63085.8789       1.57094836    
  -51.7500000       1.29565406      -20.0000000       63085.8789       1.57094836    
  -53.2043991       1.01675200      -20.0000000       63085.8789       1.57094836    
  -53.0367393       2.70281792      -20.0000000       63085.8789       1.57094836    
  -44.2742119      -6.25000000      -20.0000000       239078.875      -1.57091045    
  -45.7804108      -6.25000000      -20.0000000       239078.875      -1.57091045    
  -45.7679100      -4.68779421      -20.0000000       239078.875      -1.57091045    
  -44.2670212      -4.68766403      -20.0000000       239078.875      -1.57091045    
  -45.7679100      -4.68779421      -20.0000000       140287.922      -1.57093525    
  -47.2626686      -4.68801212      -20.0000000       140287.922      -1.57093525    
  -47.2550507      -3.12222195      -20.0000000       140287.922      -1.57093525    
  -45.7611885      -3.12411094      -20.0000000       140287.922      -1.57093525    
  -51.7500000       1.29565406      -20.0000000       19526.1738       1.57083642    
  -50.2459984       1.47492099      -20.0000000       19526.1738       1.57083642    
  -50.2816200      -7.23225027E-02  -20.0000000       19526.1738       1.57083642    
  -51.7686501     -0.191007897      -20.0000000       19526.1738       1.57083642    
  -47.2550507      -3.12222195      -20.0000000       77023.6406      -1.57092476    
  -48.7254105      -3.12169194      -20.0000000       77023.6406      -1.57092476    
  -48.7658615      -1.56390297      -20.0000000       77023.6406      -1.57092476    
  -47.2643318      -1.55986798      -20.0000000       77023.6406      -1.57092476    
  -48.7658615      -1.56390297      -20.0000000       25549.9258      -1.57085598    
  -50.2854195      -1.59545600      -20.0000000       25549.9258      -1.57085598    
  -50.2816200      -7.23225027E-02  -20.0000000       25549.9258      -1.57085598    
  -48.7753716      -1.42937005E-02  -20.0000000       25549.9258      -1.57085598    
  -54.5736809       4.04919481      -20.0000000       119042.078       1.57101250    
  -53.0954399       4.36336088      -20.0000000       119042.078       1.57101250    
  -53.0367393       2.70281792      -20.0000000       119042.078       1.57101250    
  -54.3531990       2.57653904      -20.0000000       119042.078       1.57101250    
  -54.6465797       5.53822613      -20.0000000       206595.984       1.57100475    
  -54.5736809       4.04919481      -20.0000000       206595.984       1.57100475    
  -55.8850899       4.68635893      -20.0000000       206595.984       1.57100475    
  -55.8850899       4.68635893      -20.0000000       206595.984       1.57100475    
  -44.2670212      -4.68766403      -20.0000000       233239.109      -1.57091832    
  -42.7620697      -4.68767691      -20.0000000       233239.109      -1.57091832    
  -42.7680206      -6.25000000      -20.0000000       233239.109      -1.57091832    
  -44.2742119      -6.25000000      -20.0000000       233239.109      -1.57091832    
  -44.2670212      -4.68766403      -20.0000000       138424.281      -1.57095385    
  -45.7679100      -4.68779421      -20.0000000       138424.281      -1.57095385    
  -45.7611885      -3.12411094      -20.0000000       138424.281      -1.57095385    
  -44.2611694      -3.12488103      -20.0000000       138424.281      -1.57095385    
  -45.7611885      -3.12411094      -20.0000000       76775.9062      -1.57097268    
  -47.2550507      -3.12222195      -20.0000000       76775.9062      -1.57097268    
  -47.2643318      -1.55986798      -20.0000000       76775.9062      -1.57097268    
  -45.7603798      -1.56126106      -20.0000000       76775.9062      -1.57097268    
  -50.2459984       1.47492099      -20.0000000       70418.5156       1.57083976    
  -51.7500000       1.29565406      -20.0000000       70418.5156       1.57083976    
  -51.6464691       2.90894699      -20.0000000       70418.5156       1.57083976    
  -50.2011604       3.04989505      -20.0000000       70418.5156       1.57083976    
  -54.6465797       5.53822613      -20.0000000       208627.469       1.57097030    
  -53.2416306       6.06926107      -20.0000000       208627.469       1.57097030    
  -53.0954399       4.36336088      -20.0000000       208627.469       1.57097030    
  -54.5736809       4.04919481      -20.0000000       208627.469       1.57097030    
  -47.2643318      -1.55986798      -20.0000000       24729.2305      -1.57094002    
  -48.7658615      -1.56390297      -20.0000000       24729.2305      -1.57094002    
  -48.7753716      -1.42937005E-02  -20.0000000       24729.2305      -1.57094002    
  -47.2657204       0.00000000      -20.0000000       24729.2305      -1.57094002    
  -48.7753716      -1.42937005E-02  -20.0000000       22940.9102       1.57072866    
  -50.2816200      -7.23225027E-02  -20.0000000       22940.9102       1.57072866    
  -50.2459984       1.47492099      -20.0000000       22940.9102       1.57072866    
  -48.7560692       1.53868604      -20.0000000       22940.9102       1.57072866    
  -51.6464691       2.90894699      -20.0000000       126173.273       1.57093024    
  -53.0367393       2.70281792      -20.0000000       126173.273       1.57093024    
  -53.0954399       4.36336088      -20.0000000       126173.273       1.57093024    
  -51.6648903       4.56408405      -20.0000000       126173.273       1.57093024    
  -41.2618294      -6.25000000      -20.0000000       226283.625      -1.57091665    
  -42.7680206      -6.25000000      -20.0000000       226283.625      -1.57091665    
  -42.7620697      -4.68767691      -20.0000000       226283.625      -1.57091665    
  -41.2566490      -4.68782711      -20.0000000       226283.625      -1.57091665    
  -44.2611694      -3.12488103      -20.0000000       135535.688      -1.57095397    
  -42.7563400      -3.12513494      -20.0000000       135535.688      -1.57095397    
  -42.7620697      -4.68767691      -20.0000000       135535.688      -1.57095397    
  -44.2670212      -4.68766403      -20.0000000       135535.688      -1.57095397    
  -44.2611694      -3.12488103      -20.0000000       75925.5547      -1.57098818    
  -45.7611885      -3.12411094      -20.0000000       75925.5547      -1.57098818    
  -45.7603798      -1.56126106      -20.0000000       75925.5547      -1.57098818    
  -44.2565308      -1.56226599      -20.0000000       75925.5547      -1.57098818    
  -45.7603798      -1.56126106      -20.0000000       24525.4258      -1.57099080    
  -47.2643318      -1.55986798      -20.0000000       24525.4258      -1.57099080    
  -47.2657204       0.00000000      -20.0000000       24525.4258      -1.57099080    
  -45.7582893       0.00000000      -20.0000000       24525.4258      -1.57099080    
  -47.2657204       0.00000000      -20.0000000       24266.7129       1.57064474    
  -48.7753716      -1.42937005E-02  -20.0000000       24266.7129       1.57064474    
  -48.7560692       1.53868604      -20.0000000       24266.7129       1.57064474    
  -47.2535896       1.55706894      -20.0000000       24266.7129       1.57064474    
  -48.7560692       1.53868604      -20.0000000       75007.7422       1.57074106    
  -50.2459984       1.47492099      -20.0000000       75007.7422       1.57074106    
  -50.2011604       3.04989505      -20.0000000       75007.7422       1.57074106    
  -48.7281189       3.10503101      -20.0000000       75007.7422       1.57074106    
  -50.2011604       3.04989505      -20.0000000       133953.719       1.57084191    
  -51.6464691       2.90894699      -20.0000000       133953.719       1.57084191    
  -51.6648903       4.56408405      -20.0000000       133953.719       1.57084191    
  -50.2067184       4.64797401      -20.0000000       133953.719       1.57084191    
  -51.6648903       4.56408405      -20.0000000       226924.297       1.57090843    
  -53.0954399       4.36336088      -20.0000000       226924.297       1.57090843    
  -53.2416306       6.06926107      -20.0000000       226924.297       1.57090843    
  -51.7500000       6.25000000      -20.0000000       226924.297       1.57090843    
  -39.7556496      -6.25000000      -20.0000000       218574.219      -1.57090998    
  -41.2618294      -6.25000000      -20.0000000       218574.219      -1.57090998    
  -41.2566490      -4.68782711      -20.0000000       218574.219      -1.57090998    
  -39.7507591      -4.68851089      -20.0000000       218574.219      -1.57090998    
  -41.2566490      -4.68782711      -20.0000000       131884.359      -1.57094204    
  -42.7620697      -4.68767691      -20.0000000       131884.359      -1.57094204    
  -42.7563400      -3.12513494      -20.0000000       131884.359      -1.57094204    
  -41.2511406      -3.12541890      -20.0000000       131884.359      -1.57094204    
  -44.2565308      -1.56226599      -20.0000000       74485.1328      -1.57098222    
  -42.7509499      -1.56253600      -20.0000000       74485.1328      -1.57098222    
  -42.7563400      -3.12513494      -20.0000000       74485.1328      -1.57098222    
  -44.2611694      -3.12488103      -20.0000000       74485.1328      -1.57098222    
  -44.2565308      -1.56226599      -20.0000000       24283.0000      -1.57100606    
  -45.7603798      -1.56126106      -20.0000000       24283.0000      -1.57100606    
  -45.7582893       0.00000000      -20.0000000       24283.0000      -1.57100606    
  -44.2515602       0.00000000      -20.0000000       24283.0000      -1.57100606    
  -45.7582893       0.00000000      -20.0000000       24393.8320       1.57059264    
  -47.2657204       0.00000000      -20.0000000       24393.8320       1.57059264    
  -47.2535896       1.55706894      -20.0000000       24393.8320       1.57059264    
  -45.7509003       1.56100297      -20.0000000       24393.8320       1.57059264    
  -47.2535896       1.55706894      -20.0000000       76591.2422       1.57066464    
  -48.7560692       1.53868604      -20.0000000       76591.2422       1.57066464    
  -48.7281189       3.10503101      -20.0000000       76591.2422       1.57066464    
  -47.2370110       3.11982203      -20.0000000       76591.2422       1.57066464    
  -48.7281189       3.10503101      -20.0000000       138821.109       1.57076085    
  -50.2011604       3.04989505      -20.0000000       138821.109       1.57076085    
  -50.2067184       4.64797401      -20.0000000       138821.109       1.57076085    
  -48.7241211       4.67746210      -20.0000000       138821.109       1.57076085    
  -50.2067184       4.64797401      -20.0000000       238103.094       1.57084548    
  -51.6648903       4.56408405      -20.0000000       238103.094       1.57084548    
  -51.7500000       6.25000000      -20.0000000       238103.094       1.57084548    
  -50.2455711       6.25000000      -20.0000000       238103.094       1.57084548    
  -38.2494698      -6.25000000      -20.0000000       210417.906      -1.57090187    
  -39.7556496      -6.25000000      -20.0000000       210417.906      -1.57090187    
  -39.7507591      -4.68851089      -20.0000000       210417.906      -1.57090187    
  -38.2446404      -4.68936491      -20.0000000       210417.906      -1.57090187    
  -39.7507591      -4.68851089      -20.0000000       127726.734      -1.57092559    
  -41.2566490      -4.68782711      -20.0000000       127726.734      -1.57092559    
  -41.2511406      -3.12541890      -20.0000000       127726.734      -1.57092559    
  -39.7453995      -3.12673903      -20.0000000       127726.734      -1.57092559    
  -41.2511406      -3.12541890      -20.0000000       72613.0156      -1.57096183    
  -42.7563400      -3.12513494      -20.0000000       72613.0156      -1.57096183    
  -42.7509499      -1.56253600      -20.0000000       72613.0156      -1.57096183    
  -41.2455711      -1.56282198      -20.0000000       72613.0156      -1.57096183    
  -44.2515602       0.00000000      -20.0000000       23851.8379      -1.57099652    
  -42.7457504       0.00000000      -20.0000000       23851.8379      -1.57099652    
  -42.7509499      -1.56253600      -20.0000000       23851.8379      -1.57099652    
  -44.2565308      -1.56226599      -20.0000000       23851.8379      -1.57099652    
  -44.2515602       0.00000000      -20.0000000       24121.5723       1.57057631    
  -45.7582893       0.00000000      -20.0000000       24121.5723       1.57057631    
  -45.7509003       1.56100297      -20.0000000       24121.5723       1.57057631    
  -44.2452011       1.56199801      -20.0000000       24121.5723       1.57057631    
  -45.7509003       1.56100297      -20.0000000       76580.4297       1.57061672    
  -47.2535896       1.55706894      -20.0000000       76580.4297       1.57061672    
  -47.2370110       3.11982203      -20.0000000       76580.4297       1.57061672    
  -45.7402802       3.12332392      -20.0000000       76580.4297       1.57061672    
  -47.2370110       3.11982203      -20.0000000       140517.438       1.57069612    
  -48.7281189       3.10503101      -20.0000000       140517.438       1.57069612    
  -48.7241211       4.67746210      -20.0000000       140517.438       1.57069612    
  -47.2300911       4.68496799      -20.0000000       140517.438       1.57069612    
  -48.7241211       4.67746210      -20.0000000       243521.047       1.57078648    
  -50.2067184       4.64797401      -20.0000000       243521.047       1.57078648    
  -50.2455711       6.25000000      -20.0000000       243521.047       1.57078648    
  -48.7411499       6.25000000      -20.0000000       243521.047       1.57078648    
  -36.7432899      -6.25000000      -20.0000000       201958.234      -1.57089376    
  -38.2494698      -6.25000000      -20.0000000       201958.234      -1.57089376    
  -38.2446404      -4.68936491      -20.0000000       201958.234      -1.57089376    
  -36.7384796      -4.68897390      -20.0000000       201958.234      -1.57089376    
  -38.2446404      -4.68936491      -20.0000000       123248.086      -1.57090974    
  -39.7507591      -4.68851089      -20.0000000       123248.086      -1.57090974    
  -39.7453995      -3.12673903      -20.0000000       123248.086      -1.57090974    
  -38.2396507      -3.12933803      -20.0000000       123248.086      -1.57090974    
  -39.7453995      -3.12673903      -20.0000000       70427.8438      -1.57093740    
  -41.2511406      -3.12541890      -20.0000000       70427.8438      -1.57093740    
  -41.2455711      -1.56282198      -20.0000000       70427.8438      -1.57093740    
  -39.7399902      -1.56351995      -20.0000000       70427.8438      -1.57093740    
  -41.2455711      -1.56282198      -20.0000000       23273.7715      -1.57097113    
  -42.7509499      -1.56253600      -20.0000000       23273.7715      -1.57097113    
  -42.7457504       0.00000000      -20.0000000       23273.7715      -1.57097113    
  -41.2401695       0.00000000      -20.0000000       23273.7715      -1.57097113    
  -44.2452011       1.56199801      -20.0000000       23616.6328       1.57058513    
  -42.7402611       1.56238496      -20.0000000       23616.6328       1.57058513    
  -42.7457504       0.00000000      -20.0000000       23616.6328       1.57058513    
  -44.2515602       0.00000000      -20.0000000       23616.6328       1.57058513    
  -44.2452011       1.56199801      -20.0000000       75671.5703       1.57060087    
  -45.7509003       1.56100297      -20.0000000       75671.5703       1.57060087    
  -45.7402802       3.12332392      -20.0000000       75671.5703       1.57060087    
  -44.2380295       3.12447906      -20.0000000       75671.5703       1.57060087    
  -45.7402802       3.12332392      -20.0000000       140030.672       1.57065511    
  -47.2370110       3.11982203      -20.0000000       140030.672       1.57065511    
  -47.2300911       4.68496799      -20.0000000       140030.672       1.57065511    
  -45.7329903       4.68700409      -20.0000000       140030.672       1.57065511    
  -47.2300911       4.68496799      -20.0000000       244816.125       1.57073760    
  -48.7241211       4.67746210      -20.0000000       244816.125       1.57073760    
  -48.7411499       6.25000000      -20.0000000       244816.125       1.57073760    
  -47.2367287       6.25000000      -20.0000000       244816.125       1.57073760    
  -35.2371101      -6.25000000      -20.0000000       193333.812      -1.57088566    
  -36.7432899      -6.25000000      -20.0000000       193333.812      -1.57088566    
  -36.7384796      -4.68897390      -20.0000000       193333.812      -1.57088566    
  -35.2325211      -4.68835878      -20.0000000       193333.812      -1.57088566    
  -36.7384796      -4.68897390      -20.0000000       118468.734      -1.57089686    
  -38.2446404      -4.68936491      -20.0000000       118468.734      -1.57089686    
  -38.2396507      -3.12933803      -20.0000000       118468.734      -1.57089686    
  -36.7339096      -3.12783909      -20.0000000       118468.734      -1.57089686    
  -38.2396507      -3.12933803      -20.0000000       68047.6797      -1.57091546    
  -39.7453995      -3.12673903      -20.0000000       68047.6797      -1.57091546    
  -39.7399902      -1.56351995      -20.0000000       68047.6797      -1.57091546    
  -38.2346497      -1.56438303      -20.0000000       68047.6797      -1.57091546    
  -39.7399902      -1.56351995      -20.0000000       22602.1641      -1.57094193    
  -41.2455711      -1.56282198      -20.0000000       22602.1641      -1.57094193    
  -41.2401695       0.00000000      -20.0000000       22602.1641      -1.57094193    