 VARIABLES="X" "Y" "Z" "abs(p) (Pa)" "angle(p) (rad)"
ZONE N=   3650,E =    3624, F=FEPOINT, ET=QUADRILATERAL
  -56.5164909      -2.47323704      -20.0000000       3.00441575       2.57081604    
  -55.4176407      -3.26747894      -20.0000000       3.00441575       2.57081604    
  -55.9264717      -4.64953518      -20.0000000       3.00441575       2.57081604    
  -56.9148483      -3.51935697      -20.0000000       3.00441575       2.57081604    
  -56.9148483      -3.51935697      -20.0000000       3.43723702       2.57322145    
  -57.6058807      -2.18402195      -20.0000000       3.43723702       2.57322145    
  -56.5164909      -2.47323704      -20.0000000       3.43723702       2.57322145    
  -56.5164909      -2.47323704      -20.0000000       3.43723702       2.57322145    
  -54.6953812      -5.51239681      -20.0000000       2.52644396       2.56866169    
  -55.9264717      -4.64953518      -20.0000000       2.52644396       2.56866169    
  -55.4176407      -3.26747894      -20.0000000       2.52644396       2.56866169    
  -54.2450790      -3.94889998      -20.0000000       2.52644396       2.56866169    
  -54.2450790      -3.94889998      -20.0000000       2.03673005       2.56621933    
  -52.9834785      -4.46340179      -20.0000000       2.03673005       2.56621933    
  -53.2955093      -6.05576801      -20.0000000       2.03673005       2.56621933    
  -54.6953812      -5.51239681      -20.0000000       2.03673005       2.56621933    
  -56.5223999      -1.11500299      -20.0000000       3.45004392       2.56962061    
  -56.5164909      -2.47323704      -20.0000000       3.45004392       2.56962061    
  -57.6058807      -2.18402195      -20.0000000       3.45004392       2.56962061    
  -57.9577713     -0.724482894      -20.0000000       3.45004392       2.56962061    
  -56.5164909      -2.47323704      -20.0000000       2.82523441       2.56244850    
  -56.5223999      -1.11500299      -20.0000000       2.82523441       2.56244850    
  -55.1657600      -1.76926601      -20.0000000       2.82523441       2.56244850    
  -55.4176407      -3.26747894      -20.0000000       2.82523441       2.56244850    
  -54.2450790      -3.94889998      -20.0000000       2.34844756       2.55584025    
  -55.4176407      -3.26747894      -20.0000000       2.34844756       2.55584025    
  -55.1657600      -1.76926601      -20.0000000       2.34844756       2.55584025    
  -53.8819199      -2.32836604      -20.0000000       2.34844756       2.55584025    
  -52.9834785      -4.46340179      -20.0000000       1.55504405       2.55859923    
  -51.6155815      -4.69134283      -20.0000000       1.55504405       2.55859923    
  -51.8049088      -6.24783087      -20.0000000       1.55504405       2.55859923    
  -53.2955093      -6.05576801      -20.0000000       1.55504405       2.55859923    
  -56.3964119      0.254809886      -20.0000000       3.46590638       2.56839848    
  -56.5223999      -1.11500299      -20.0000000       3.46590638       2.56839848    
  -57.9577713     -0.724482894      -20.0000000       3.46590638       2.56839848    
  -57.9511719      0.779103875      -20.0000000       3.46590638       2.56839848    
  -53.8819199      -2.32836604      -20.0000000       1.93048608       2.55016208    
  -52.7235603      -2.92538095      -20.0000000       1.93048608       2.55016208    
  -52.9834785      -4.46340179      -20.0000000       1.93048608       2.55016208    
  -54.2450790      -3.94889998      -20.0000000       1.93048608       2.55016208    
  -56.5223999      -1.11500299      -20.0000000       2.77014923       2.55981517    
  -56.3964119      0.254809886      -20.0000000       2.77014923       2.55981517    
  -54.8835487     -0.325594515      -20.0000000       2.77014923       2.55981517    
  -55.1657600      -1.76926601      -20.0000000       2.77014923       2.55981517    
  -50.2990494      -6.25000000      -20.0000000       1.11060643       2.54096365    
  -51.8049088      -6.24783087      -20.0000000       1.11060643       2.54096365    
  -51.6155815      -4.69134283      -20.0000000       1.11060643       2.54096365    
  -50.1911316      -4.70199823      -20.0000000       1.11060643       2.54096365    
  -53.8819199      -2.32836604      -20.0000000       2.24036551       2.54953027    
  -55.1657600      -1.76926601      -20.0000000       2.24036551       2.54953027    
  -54.8835487     -0.325594515      -20.0000000       2.24036551       2.54953027    
  -53.3087082     -0.726661325      -20.0000000       2.24036551       2.54953027    
  -52.7235603      -2.92538095      -20.0000000       1.53231406       2.54058266    
  -51.4683685      -3.18431592      -20.0000000       1.53231406       2.54058266    
  -51.6155815      -4.69134283      -20.0000000       1.53231406       2.54058266    
  -52.9834785      -4.46340179      -20.0000000       1.53231406       2.54058266    
  -56.1067696       1.60355306      -20.0000000       3.37486529       2.56824398    
  -56.3964119      0.254809886      -20.0000000       3.37486529       2.56824398    
  -57.9511719      0.779103875      -20.0000000       3.37486529       2.56824398    
  -57.5863686       2.23558092      -20.0000000       3.37486529       2.56824398    
  -56.3964119      0.254809886      -20.0000000       2.68404245       2.55820179    
  -56.1067696       1.60355306      -20.0000000       2.68404245       2.55820179    
  -54.6488190       1.11988902      -20.0000000       2.68404245       2.55820179    
  -54.8835487     -0.325594515      -20.0000000       2.68404245       2.55820179    
  -51.8859215      -1.67511594      -20.0000000       1.80191457       2.53893375    
  -52.7235603      -2.92538095      -20.0000000       1.80191457       2.53893375    
  -53.8819199      -2.32836604      -20.0000000       1.80191457       2.53893375    
  -53.3087082     -0.726661325      -20.0000000       1.80191457       2.53893375    
  -48.7928200      -6.25000000      -20.0000000      0.723011434       2.49230003    
  -50.2990494      -6.25000000      -20.0000000      0.723011434       2.49230003    
  -50.1911316      -4.70199823      -20.0000000      0.723011434       2.49230003    
  -48.7387619      -4.69004917      -20.0000000      0.723011434       2.49230003    
  -50.1911316      -4.70199823      -20.0000000       1.15492749       2.51767969    
  -51.6155815      -4.69134283      -20.0000000       1.15492749       2.51767969    
  -51.4683685      -3.18431592      -20.0000000       1.15492749       2.51767969    
  -50.1564102      -3.12996602      -20.0000000       1.15492749       2.51767969    
  -54.6488190       1.11988902      -20.0000000       2.15118289       2.54646754    
  -53.2043991       1.01675200      -20.0000000       2.15118289       2.54646754    
  -53.3087082     -0.726661325      -20.0000000       2.15118289       2.54646754    
  -54.8835487     -0.325594515      -20.0000000       2.15118289       2.54646754    
  -51.4683685      -3.18431592      -20.0000000       1.51641738       2.53189564    
  -52.7235603      -2.92538095      -20.0000000       1.51641738       2.53189564    
  -51.8859215      -1.67511594      -20.0000000       1.51641738       2.53189564    
  -51.8859215      -1.67511594      -20.0000000       1.51641738       2.53189564    
  -55.6295395       2.91055298      -20.0000000       3.17239118       2.56888366    
  -56.1067696       1.60355306      -20.0000000       3.17239118       2.56888366    
  -57.5863686       2.23558092      -20.0000000       3.17239118       2.56888366    
  -56.8836594       3.56473303      -20.0000000       3.17239118       2.56888366    
  -47.2866096      -6.25000000      -20.0000000      0.400362015       2.35912967    
  -48.7928200      -6.25000000      -20.0000000      0.400362015       2.35912967    
  -48.7387619      -4.69004917      -20.0000000      0.400362015       2.35912967    
  -47.2626686      -4.68801212      -20.0000000      0.400362015       2.35912967    
  -48.7387619      -4.69004917      -20.0000000      0.814701796       2.46851873    
  -50.1911316      -4.70199823      -20.0000000      0.814701796       2.46851873    
  -50.1564102      -3.12996602      -20.0000000      0.814701796       2.46851873    
  -48.7254105      -3.12169194      -20.0000000      0.814701796       2.46851873    
  -50.1564102      -3.12996602      -20.0000000       1.23457754       2.51091504    
  -51.4683685      -3.18431592      -20.0000000       1.23457754       2.51091504    
  -51.8859215      -1.67511594      -20.0000000       1.23457754       2.51091504    
  -50.2854195      -1.59545600      -20.0000000       1.23457754       2.51091504    
  -54.6488190       1.11988902      -20.0000000       2.55015039       2.55728340    
  -56.1067696       1.60355306      -20.0000000       2.55015039       2.55728340    
  -55.6295395       2.91055298      -20.0000000       2.55015039       2.55728340    
  -54.3531990       2.57653904      -20.0000000       2.55015039       2.55728340    
  -51.7686501     -0.191007897      -20.0000000       1.63499439       2.53017282    
  -51.8859215      -1.67511594      -20.0000000       1.63499439       2.53017282    
  -53.3087082     -0.726661325      -20.0000000       1.63499439       2.53017282    
  -53.3087082     -0.726661325      -20.0000000       1.63499439       2.53017282    
  -51.7686501     -0.191007897      -20.0000000       1.69720185       2.53217721    
  -53.3087082     -0.726661325      -20.0000000       1.69720185       2.53217721    
  -53.2043991       1.01675200      -20.0000000       1.69720185       2.53217721    
  -51.7500000       1.29565406      -20.0000000       1.69720185       2.53217721    
  -53.0367393       2.70281792      -20.0000000       2.06993008       2.54641676    
  -53.2043991       1.01675200      -20.0000000       2.06993008       2.54641676    
  -54.6488190       1.11988902      -20.0000000       2.06993008       2.54641676    
  -54.3531990       2.57653904      -20.0000000       2.06993008       2.54641676    
  -45.7804108      -6.25000000      -20.0000000      0.172351211       1.83691680    
  -47.2866096      -6.25000000      -20.0000000      0.172351211       1.83691680    
  -47.2626686      -4.68801212      -20.0000000      0.172351211       1.83691680    
  -45.7679100      -4.68779421      -20.0000000      0.172351211       1.83691680    
  -47.2626686      -4.68801212      -20.0000000      0.519753754       2.36071754    
  -48.7387619      -4.69004917      -20.0000000      0.519753754       2.36071754    
  -48.7254105      -3.12169194      -20.0000000      0.519753754       2.36071754    
  -47.2550507      -3.12222195      -20.0000000      0.519753754       2.36071754    
  -54.5736809       4.04919481      -20.0000000       2.81015611       2.56942463    
  -55.6295395       2.91055298      -20.0000000       2.81015611       2.56942463    
  -56.8836594       3.56473303      -20.0000000       2.81015611       2.56942463    
  -55.8850899       4.68635893      -20.0000000       2.81015611       2.56942463    
  -48.7254105      -3.12169194      -20.0000000      0.881872058       2.46997333    
  -50.1564102      -3.12996602      -20.0000000      0.881872058       2.46997333    
  -50.2854195      -1.59545600      -20.0000000      0.881872058       2.46997333    
  -48.7658615      -1.56390297      -20.0000000      0.881872058       2.46997333    
  -50.2854195      -1.59545600      -20.0000000       1.28746200       2.51234865    
  -51.8859215      -1.67511594      -20.0000000       1.28746200       2.51234865    
  -51.7686501     -0.191007897      -20.0000000       1.28746200       2.51234865    
  -50.2816200      -7.23225027E-02  -20.0000000       1.28746200       2.51234865    
  -55.6295395       2.91055298      -20.0000000       2.41399431       2.55861688    
  -54.5736809       4.04919481      -20.0000000       2.41399431       2.55861688    
  -54.3531990       2.57653904      -20.0000000       2.41399431       2.55861688    
  -54.3531990       2.57653904      -20.0000000       2.41399431       2.55861688    
  -51.6464691       2.90894699      -20.0000000       1.64212751       2.53369665    
  -51.7500000       1.29565406      -20.0000000       1.64212751       2.53369665    
  -53.2043991       1.01675200      -20.0000000       1.64212751       2.53369665    
  -53.0367393       2.70281792      -20.0000000       1.64212751       2.53369665    
  -44.2742119      -6.25000000      -20.0000000      0.163146451      0.584260464    
  -45.7804108      -6.25000000      -20.0000000      0.163146451      0.584260464    
  -45.7679100      -4.68779421      -20.0000000      0.163146451      0.584260464    
  -44.2670212      -4.68766403      -20.0000000      0.163146451      0.584260464    
  -45.7679100      -4.68779421      -20.0000000      0.300262809       2.09943581    
  -47.2626686      -4.68801212      -20.0000000      0.300262809       2.09943581    
  -47.2550507      -3.12222195      -20.0000000      0.300262809       2.09943581    
  -45.7611885      -3.12411094      -20.0000000      0.300262809       2.09943581    
  -51.7500000       1.29565406      -20.0000000       1.27679443       2.51144862    
  -50.2459984       1.47492099      -20.0000000       1.27679443       2.51144862    
  -50.2816200      -7.23225027E-02  -20.0000000       1.27679443       2.51144862    
  -51.7686501     -0.191007897      -20.0000000       1.27679443       2.51144862    
  -47.2550507      -3.12222195      -20.0000000      0.590146005       2.38129616    
  -48.7254105      -3.12169194      -20.0000000      0.590146005       2.38129616    
  -48.7658615      -1.56390297      -20.0000000      0.590146005       2.38129616    
  -47.2643318      -1.55986798      -20.0000000      0.590146005       2.38129616    
  -48.7658615      -1.56390297      -20.0000000      0.922970593       2.47163296    
  -50.2854195      -1.59545600      -20.0000000      0.922970593       2.47163296    
  -50.2816200      -7.23225027E-02  -20.0000000      0.922970593       2.47163296    
  -48.7753716      -1.42937005E-02  -20.0000000      0.922970593       2.47163296    
  -54.5736809       4.04919481      -20.0000000       2.02517700       2.55229664    
  -53.0954399       4.36336088      -20.0000000       2.02517700       2.55229664    
  -53.0367393       2.70281792      -20.0000000       2.02517700       2.55229664    
  -54.3531990       2.57653904      -20.0000000       2.02517700       2.55229664    
  -54.6465797       5.53822613      -20.0000000       2.54199386       2.57301068    
  -54.5736809       4.04919481      -20.0000000       2.54199386       2.57301068    
  -55.8850899       4.68635893      -20.0000000       2.54199386       2.57301068    
  -55.8850899       4.68635893      -20.0000000       2.54199386       2.57301068    
  -44.2670212      -4.68766403      -20.0000000      0.275175303      0.187430099    
  -42.7620697      -4.68767691      -20.0000000      0.275175303      0.187430099    
  -42.7680206      -6.25000000      -20.0000000      0.275175303      0.187430099    
  -44.2742119      -6.25000000      -20.0000000      0.275175303      0.187430099    
  -44.2670212      -4.68766403      -20.0000000      0.188651443       1.50559449    
  -45.7679100      -4.68779421      -20.0000000      0.188651443       1.50559449    
  -45.7611885      -3.12411094      -20.0000000      0.188651443       1.50559449    
  -44.2611694      -3.12488103      -20.0000000      0.188651443       1.50559449    
  -45.7611885      -3.12411094      -20.0000000      0.370676696       2.20825243    
  -47.2550507      -3.12222195      -20.0000000      0.370676696       2.20825243    
  -47.2643318      -1.55986798      -20.0000000      0.370676696       2.20825243    
  -45.7603798      -1.56126106      -20.0000000      0.370676696       2.20825243    
  -50.2459984       1.47492099      -20.0000000       1.24030232       2.51051784    
  -51.7500000       1.29565406      -20.0000000       1.24030232       2.51051784    
  -51.6464691       2.90894699      -20.0000000       1.24030232       2.51051784    
  -50.2011604       3.04989505      -20.0000000       1.24030232       2.51051784    
  -54.6465797       5.53822613      -20.0000000       2.05972099       2.56666994    
  -53.2416306       6.06926107      -20.0000000       2.05972099       2.56666994    
  -53.0954399       4.36336088      -20.0000000       2.05972099       2.56666994    
  -54.5736809       4.04919481      -20.0000000       2.05972099       2.56666994    
  -47.2643318      -1.55986798      -20.0000000      0.628247201       2.40302873    
  -48.7658615      -1.56390297      -20.0000000      0.628247201       2.40302873    
  -48.7753716      -1.42937005E-02  -20.0000000      0.628247201       2.40302873    
  -47.2657204       0.00000000      -20.0000000      0.628247201       2.40302873    
  -48.7753716      -1.42937005E-02  -20.0000000      0.920991659       2.47139359    
  -50.2816200      -7.23225027E-02  -20.0000000      0.920991659       2.47139359    
  -50.2459984       1.47492099      -20.0000000      0.920991659       2.47139359    
  -48.7560692       1.53868604      -20.0000000      0.920991659       2.47139359    
  -51.6464691       2.90894699      -20.0000000       1.58269489       2.54148340    
  -53.0367393       2.70281792      -20.0000000       1.58269489       2.54148340    
  -53.0954399       4.36336088      -20.0000000       1.58269489       2.54148340    
  -51.6648903       4.56408405      -20.0000000       1.58269489       2.54148340    
  -41.2618294      -6.25000000      -20.0000000      0.373863906      0.119432025    
  -42.7680206      -6.25000000      -20.0000000      0.373863906      0.119432025    
  -42.7620697      -4.68767691      -20.0000000      0.373863906      0.119432025    
  -41.2566490      -4.68782711      -20.0000000      0.373863906      0.119432025    
  -44.2611694      -3.12488103      -20.0000000      0.204364687      0.846001804    
  -42.7563400      -3.12513494      -20.0000000      0.204364687      0.846001804    
  -42.7620697      -4.68767691      -20.0000000      0.204364687      0.846001804    
  -44.2670212      -4.68766403      -20.0000000      0.204364687      0.846001804    
  -44.2611694      -3.12488103      -20.0000000      0.238031849       1.84361696    
  -45.7611885      -3.12411094      -20.0000000      0.238031849       1.84361696    
  -45.7603798      -1.56126106      -20.0000000      0.238031849       1.84361696    
  -44.2565308      -1.56226599      -20.0000000      0.238031849       1.84361696    
  -45.7603798      -1.56126106      -20.0000000      0.408154309       2.26233506    
  -47.2643318      -1.55986798      -20.0000000      0.408154309       2.26233506    
  -47.2657204       0.00000000      -20.0000000      0.408154309       2.26233506    
  -45.7582893       0.00000000      -20.0000000      0.408154309       2.26233506    
  -47.2657204       0.00000000      -20.0000000      0.627268612       2.40274858    
  -48.7753716      -1.42937005E-02  -20.0000000      0.627268612       2.40274858    
  -48.7560692       1.53868604      -20.0000000      0.627268612       2.40274858    
  -47.2535896       1.55706894      -20.0000000      0.627268612       2.40274858    
  -48.7560692       1.53868604      -20.0000000      0.882771194       2.47011089    
  -50.2459984       1.47492099      -20.0000000      0.882771194       2.47011089    
  -50.2011604       3.04989505      -20.0000000      0.882771194       2.47011089    
  -48.7281189       3.10503101      -20.0000000      0.882771194       2.47011089    
  -50.2011604       3.04989505      -20.0000000       1.18089294       2.51827788    
  -51.6464691       2.90894699      -20.0000000       1.18089294       2.51827788    
  -51.6648903       4.56408405      -20.0000000       1.18089294       2.51827788    
  -50.2067184       4.64797401      -20.0000000       1.18089294       2.51827788    
  -51.6648903       4.56408405      -20.0000000       1.55851543       2.55796146    
  -53.0954399       4.36336088      -20.0000000       1.55851543       2.55796146    
  -53.2416306       6.06926107      -20.0000000       1.55851543       2.55796146    
  -51.7500000       6.25000000      -20.0000000       1.55851543       2.55796146    
  -39.7556496      -6.25000000      -20.0000000      0.453421533      0.137870729    
  -41.2618294      -6.25000000      -20.0000000      0.453421533      0.137870729    
  -41.2566490      -4.68782711      -20.0000000      0.453421533      0.137870729    
  -39.7507591      -4.68851089      -20.0000000      0.453421533      0.137870729    
  -41.2566490      -4.68782711      -20.0000000      0.274663359      0.566463411    
  -42.7620697      -4.68767691      -20.0000000      0.274663359      0.566463411    
  -42.7563400      -3.12513494      -20.0000000      0.274663359      0.566463411    
  -41.2511406      -3.12541890      -20.0000000      0.274663359      0.566463411    
  -44.2565308      -1.56226599      -20.0000000      0.203029230       1.30188560    
  -42.7509499      -1.56253600      -20.0000000      0.203029230       1.30188560    
  -42.7563400      -3.12513494      -20.0000000      0.203029230       1.30188560    
  -44.2611694      -3.12488103      -20.0000000      0.203029230       1.30188560    
  -44.2565308      -1.56226599      -20.0000000      0.267842501       1.98125207    
  -45.7603798      -1.56126106      -20.0000000      0.267842501       1.98125207    
  -45.7582893       0.00000000      -20.0000000      0.267842501       1.98125207    
  -44.2515602       0.00000000      -20.0000000      0.267842501       1.98125207    
  -45.7582893       0.00000000      -20.0000000      0.407390952       2.26173449    
  -47.2657204       0.00000000      -20.0000000      0.407390952       2.26173449    
  -47.2535896       1.55706894      -20.0000000      0.407390952       2.26173449    
  -45.7509003       1.56100297      -20.0000000      0.407390952       2.26173449    
  -47.2535896       1.55706894      -20.0000000      0.588218749       2.38079929    
  -48.7560692       1.53868604      -20.0000000      0.588218749       2.38079929    
  -48.7281189       3.10503101      -20.0000000      0.588218749       2.38079929    
  -47.2370110       3.11982203      -20.0000000      0.588218749       2.38079929    
  -48.7281189       3.10503101      -20.0000000      0.818517566       2.46930075    
  -50.2011604       3.04989505      -20.0000000      0.818517566       2.46930075    
  -50.2067184       4.64797401      -20.0000000      0.818517566       2.46930075    
  -48.7241211       4.67746210      -20.0000000      0.818517566       2.46930075    
  -50.2067184       4.64797401      -20.0000000       1.11021209       2.54035306    
  -51.6648903       4.56408405      -20.0000000       1.11021209       2.54035306    
  -51.7500000       6.25000000      -20.0000000       1.11021209       2.54035306    
  -50.2455711       6.25000000      -20.0000000       1.11021209       2.54035306    
  -38.2494698      -6.25000000      -20.0000000      0.526936769      0.187560409    
  -39.7556496      -6.25000000      -20.0000000      0.526936769      0.187560409    
  -39.7507591      -4.68851089      -20.0000000      0.526936769      0.187560409    
  -38.2446404      -4.68936491      -20.0000000      0.526936769      0.187560409    
  -39.7507591      -4.68851089      -20.0000000      0.353887707      0.479112923    
  -41.2566490      -4.68782711      -20.0000000      0.353887707      0.479112923    
  -41.2511406      -3.12541890      -20.0000000      0.353887707      0.479112923    
  -39.7453995      -3.12673903      -20.0000000      0.353887707      0.479112923    
  -41.2511406      -3.12541890      -20.0000000      0.243044391      0.907307506    
  -42.7563400      -3.12513494      -20.0000000      0.243044391      0.907307506    
  -42.7509499      -1.56253600      -20.0000000      0.243044391      0.907307506    
  -41.2455711      -1.56282198      -20.0000000      0.243044391      0.907307506    
  -44.2515602       0.00000000      -20.0000000      0.213260144       1.52682507    
  -42.7457504       0.00000000      -20.0000000      0.213260144       1.52682507    
  -42.7509499      -1.56253600      -20.0000000      0.213260144       1.52682507    
  -44.2565308      -1.56226599      -20.0000000      0.213260144       1.52682507    
  -44.2515602       0.00000000      -20.0000000      0.267413884       1.98014367    
  -45.7582893       0.00000000      -20.0000000      0.267413884       1.98014367    
  -45.7509003       1.56100297      -20.0000000      0.267413884       1.98014367    
  -44.2452011       1.56199801      -20.0000000      0.267413884       1.98014367    
  -45.7509003       1.56100297      -20.0000000      0.368328512       2.20588756    
  -47.2535896       1.55706894      -20.0000000      0.368328512       2.20588756    
  -47.2370110       3.11982203      -20.0000000      0.368328512       2.20588756    
  -45.7402802       3.12332392      -20.0000000      0.368328512       2.20588756    
  -47.2370110       3.11982203      -20.0000000      0.516441762       2.35986996    
  -48.7281189       3.10503101      -20.0000000      0.516441762       2.35986996    
  -48.7241211       4.67746210      -20.0000000      0.516441762       2.35986996    
  -47.2300911       4.68496799      -20.0000000      0.516441762       2.35986996    
  -48.7241211       4.67746210      -20.0000000      0.716862917       2.49031591    
  -50.2067184       4.64797401      -20.0000000      0.716862917       2.49031591    
  -50.2455711       6.25000000      -20.0000000      0.716862917       2.49031591    
  -48.7411499       6.25000000      -20.0000000      0.716862917       2.49031591    
  -36.7432899      -6.25000000      -20.0000000      0.594274163      0.251257211    
  -38.2494698      -6.25000000      -20.0000000      0.594274163      0.251257211    
  -38.2446404      -4.68936491      -20.0000000      0.594274163      0.251257211    
  -36.7384796      -4.68897390      -20.0000000      0.594274163      0.251257211    
  -38.2446404      -4.68936491      -20.0000000      0.433760524      0.467420936    
  -39.7507591      -4.68851089      -20.0000000      0.433760524      0.467420936    
  -39.7453995      -3.12673903      -20.0000000      0.433760524      0.467420936    
  -38.2396507      -3.12933803      -20.0000000      0.433760524      0.467420936    
  -39.7453995      -3.12673903      -20.0000000      0.314940929      0.725098848    
  -41.2511406      -3.12541890      -20.0000000      0.314940929      0.725098848    
  -41.2455711      -1.56282198      -20.0000000      0.314940929      0.725098848    
  -39.7399902      -1.56351995      -20.0000000      0.314940929      0.725098848    
  -41.2455711      -1.56282198      -20.0000000      0.234707505       1.10632455    
  -42.7509499      -1.56253600      -20.0000000      0.234707505       1.10632455    
  -42.7457504       0.00000000      -20.0000000      0.234707505       1.10632455    
  -41.2401695       0.00000000      -20.0000000      0.234707505       1.10632455    
  -44.2452011       1.56199801      -20.0000000      0.213103548       1.52507341    
  -42.7402611       1.56238496      -20.0000000      0.213103548       1.52507341    
  -42.7457504       0.00000000      -20.0000000      0.213103548       1.52507341    
  -44.2515602       0.00000000      -20.0000000      0.213103548       1.52507341    
  -44.2452011       1.56199801      -20.0000000      0.236483783       1.83754289    
  -45.7509003       1.56100297      -20.0000000      0.236483783       1.83754289    
  -45.7402802       3.12332392      -20.0000000      0.236483783       1.83754289    
  -44.2380295       3.12447906      -20.0000000      0.236483783       1.83754289    
  -45.7402802       3.12332392      -20.0000000      0.296673924       2.09311295    
  -47.2370110       3.11982203      -20.0000000      0.296673924       2.09311295    
  -47.2300911       4.68496799      -20.0000000      0.296673924       2.09311295    
  -45.7329903       4.68700409      -20.0000000      0.296673924       2.09311295    
  -47.2300911       4.68496799      -20.0000000      0.392697662       2.35545397    
  -48.7241211       4.67746210      -20.0000000      0.392697662       2.35545397    
  -48.7411499       6.25000000      -20.0000000      0.392697662       2.35545397    
  -47.2367287       6.25000000      -20.0000000      0.392697662       2.35545397    
  -35.2371101      -6.25000000      -20.0000000      0.664840221      0.316854298    
  -36.7432899      -6.25000000      -20.0000000      0.664840221      0.316854298    
  -36.7384796      -4.68897390      -20.0000000      0.664840221      0.316854298    
  -35.2325211      -4.68835878      -20.0000000      0.664840221      0.316854298    
  -36.7384796      -4.68897390      -20.0000000      0.517057836      0.476566613    
  -38.2446404      -4.68936491      -20.0000000      0.517057836      0.476566613    
  -38.2396507      -3.12933803      -20.0000000      0.517057836      0.476566613    
  -36.7339096      -3.12783909      -20.0000000      0.517057836      0.476566613    
  -38.2396507      -3.12933803      -20.0000000      0.398169607      0.647303879    
  -39.7453995      -3.12673903      -20.0000000      0.398169607      0.647303879    
  -39.7399902      -1.56351995      -20.0000000      0.398169607      0.647303879    
  -38.2346497      -1.56438303      -20.0000000      0.398169607      0.647303879    
  -39.7399902      -1.56351995      -20.0000000      0.300197840      0.862511873    
  -41.2455711      -1.56282198      -20.0000000      0.300197840      0.862511873    
  -41.2401695       0.00000000      -20.0000000      0.300197840      0.862511873    