 VARIABLES="X" "Y" "Z" "abs(p) (Pa)" "angle(p) (rad)"
ZONE N=   3650,E =    3624, F=FEPOINT, ET=QUADRILATERAL
  -56.5164909      -2.47323704      -20.0000000       4.28170919       1.02043843    
  -55.4176407      -3.26747894      -20.0000000       4.28170919       1.02043843    
  -55.9264717      -4.64953518      -20.0000000       4.28170919       1.02043843    
  -56.9148483      -3.51935697      -20.0000000       4.28170919       1.02043843    
  -56.9148483      -3.51935697      -20.0000000       4.58026838       1.02999055    
  -57.6058807      -2.18402195      -20.0000000       4.58026838       1.02999055    
  -56.5164909      -2.47323704      -20.0000000       4.58026838       1.02999055    
  -56.5164909      -2.47323704      -20.0000000       4.58026838       1.02999055    
  -54.6953812      -5.51239681      -20.0000000       3.99129319       1.01053393    
  -55.9264717      -4.64953518      -20.0000000       3.99129319       1.01053393    
  -55.4176407      -3.26747894      -20.0000000       3.99129319       1.01053393    
  -54.2450790      -3.94889998      -20.0000000       3.99129319       1.01053393    
  -54.2450790      -3.94889998      -20.0000000       3.76057673      0.998298883    
  -52.9834785      -4.46340179      -20.0000000       3.76057673      0.998298883    
  -53.2955093      -6.05576801      -20.0000000       3.76057673      0.998298883    
  -54.6953812      -5.51239681      -20.0000000       3.76057673      0.998298883    
  -56.5223999      -1.11500299      -20.0000000       4.77730513       1.02394438    
  -56.5164909      -2.47323704      -20.0000000       4.77730513       1.02394438    
  -57.6058807      -2.18402195      -20.0000000       4.77730513       1.02394438    
  -57.9577713     -0.724482894      -20.0000000       4.77730513       1.02394438    
  -56.5164909      -2.47323704      -20.0000000       4.41714621       1.00440419    
  -56.5223999      -1.11500299      -20.0000000       4.41714621       1.00440419    
  -55.1657600      -1.76926601      -20.0000000       4.41714621       1.00440419    
  -55.4176407      -3.26747894      -20.0000000       4.41714621       1.00440419    
  -54.2450790      -3.94889998      -20.0000000       4.13454533      0.990150988    
  -55.4176407      -3.26747894      -20.0000000       4.13454533      0.990150988    
  -55.1657600      -1.76926601      -20.0000000       4.13454533      0.990150988    
  -53.8819199      -2.32836604      -20.0000000       4.13454533      0.990150988    
  -52.9834785      -4.46340179      -20.0000000       3.59810615      0.981372654    
  -51.6155815      -4.69134283      -20.0000000       3.59810615      0.981372654    
  -51.8049088      -6.24783087      -20.0000000       3.59810615      0.981372654    
  -53.2955093      -6.05576801      -20.0000000       3.59810615      0.981372654    
  -56.3964119      0.254809886      -20.0000000       5.07579041       1.01807797    
  -56.5223999      -1.11500299      -20.0000000       5.07579041       1.01807797    
  -57.9577713     -0.724482894      -20.0000000       5.07579041       1.01807797    
  -57.9511719      0.779103875      -20.0000000       5.07579041       1.01807797    
  -53.8819199      -2.32836604      -20.0000000       3.90981770      0.977438867    
  -52.7235603      -2.92538095      -20.0000000       3.90981770      0.977438867    
  -52.9834785      -4.46340179      -20.0000000       3.90981770      0.977438867    
  -54.2450790      -3.94889998      -20.0000000       3.90981770      0.977438867    
  -56.5223999      -1.11500299      -20.0000000       4.65501451      0.995752752    
  -56.3964119      0.254809886      -20.0000000       4.65501451      0.995752752    
  -54.8835487     -0.325594515      -20.0000000       4.65501451      0.995752752    
  -55.1657600      -1.76926601      -20.0000000       4.65501451      0.995752752    
  -50.2990494      -6.25000000      -20.0000000       3.50051403      0.959300518    
  -51.8049088      -6.24783087      -20.0000000       3.50051403      0.959300518    
  -51.6155815      -4.69134283      -20.0000000       3.50051403      0.959300518    
  -50.1911316      -4.70199823      -20.0000000       3.50051403      0.959300518    
  -53.8819199      -2.32836604      -20.0000000       4.36188745      0.977481067    
  -55.1657600      -1.76926601      -20.0000000       4.36188745      0.977481067    
  -54.8835487     -0.325594515      -20.0000000       4.36188745      0.977481067    
  -53.3087082     -0.726661325      -20.0000000       4.36188745      0.977481067    
  -52.7235603      -2.92538095      -20.0000000       3.74218631      0.962842703    
  -51.4683685      -3.18431592      -20.0000000       3.74218631      0.962842703    
  -51.6155815      -4.69134283      -20.0000000       3.74218631      0.962842703    
  -52.9834785      -4.46340179      -20.0000000       3.74218631      0.962842703    
  -56.1067696       1.60355306      -20.0000000       5.40970039       1.00852919    
  -56.3964119      0.254809886      -20.0000000       5.40970039       1.00852919    
  -57.9511719      0.779103875      -20.0000000       5.40970039       1.00852919    
  -57.5863686       2.23558092      -20.0000000       5.40970039       1.00852919    
  -56.3964119      0.254809886      -20.0000000       4.94457817      0.986898959    
  -56.1067696       1.60355306      -20.0000000       4.94457817      0.986898959    
  -54.6488190       1.11988902      -20.0000000       4.94457817      0.986898959    
  -54.8835487     -0.325594515      -20.0000000       4.94457817      0.986898959    
  -51.8859215      -1.67511594      -20.0000000       4.11235952      0.962287366    
  -52.7235603      -2.92538095      -20.0000000       4.11235952      0.962287366    
  -53.8819199      -2.32836604      -20.0000000       4.11235952      0.962287366    
  -53.3087082     -0.726661325      -20.0000000       4.11235952      0.962287366    
  -48.7928200      -6.25000000      -20.0000000       3.44360375      0.934329450    
  -50.2990494      -6.25000000      -20.0000000       3.44360375      0.934329450    
  -50.1911316      -4.70199823      -20.0000000       3.44360375      0.934329450    
  -48.7387619      -4.69004917      -20.0000000       3.44360375      0.934329450    
  -50.1911316      -4.70199823      -20.0000000       3.63828993      0.944361866    
  -51.6155815      -4.69134283      -20.0000000       3.63828993      0.944361866    
  -51.4683685      -3.18431592      -20.0000000       3.63828993      0.944361866    
  -50.1564102      -3.12996602      -20.0000000       3.63828993      0.944361866    
  -54.6488190       1.11988902      -20.0000000       4.66435814      0.967555404    
  -53.2043991       1.01675200      -20.0000000       4.66435814      0.967555404    
  -53.3087082     -0.726661325      -20.0000000       4.66435814      0.967555404    
  -54.8835487     -0.325594515      -20.0000000       4.66435814      0.967555404    
  -51.4683685      -3.18431592      -20.0000000       3.90992165      0.953534126    
  -52.7235603      -2.92538095      -20.0000000       3.90992165      0.953534126    
  -51.8859215      -1.67511594      -20.0000000       3.90992165      0.953534126    
  -51.8859215      -1.67511594      -20.0000000       3.90992165      0.953534126    
  -55.6295395       2.91055298      -20.0000000       5.78272104      0.994251430    
  -56.1067696       1.60355306      -20.0000000       5.78272104      0.994251430    
  -57.5863686       2.23558092      -20.0000000       5.78272104      0.994251430    
  -56.8836594       3.56473303      -20.0000000       5.78272104      0.994251430    
  -47.2866096      -6.25000000      -20.0000000       3.40123463      0.908606410    
  -48.7928200      -6.25000000      -20.0000000       3.40123463      0.908606410    
  -48.7387619      -4.69004917      -20.0000000       3.40123463      0.908606410    
  -47.2626686      -4.68801212      -20.0000000       3.40123463      0.908606410    
  -48.7387619      -4.69004917      -20.0000000       3.57087922      0.923592985    
  -50.1911316      -4.70199823      -20.0000000       3.57087922      0.923592985    
  -50.1564102      -3.12996602      -20.0000000       3.57087922      0.923592985    
  -48.7254105      -3.12169194      -20.0000000       3.57087922      0.923592985    
  -50.1564102      -3.12996602      -20.0000000       3.86547637      0.938719094    
  -51.4683685      -3.18431592      -20.0000000       3.86547637      0.938719094    
  -51.8859215      -1.67511594      -20.0000000       3.86547637      0.938719094    
  -50.2854195      -1.59545600      -20.0000000       3.86547637      0.938719094    
  -54.6488190       1.11988902      -20.0000000       5.30360270      0.975719571    
  -56.1067696       1.60355306      -20.0000000       5.30360270      0.975719571    
  -55.6295395       2.91055298      -20.0000000       5.30360270      0.975719571    
  -54.3531990       2.57653904      -20.0000000       5.30360270      0.975719571    
  -51.7686501     -0.191007897      -20.0000000       4.25282049      0.950705826    
  -51.8859215      -1.67511594      -20.0000000       4.25282049      0.950705826    
  -53.3087082     -0.726661325      -20.0000000       4.25282049      0.950705826    
  -53.3087082     -0.726661325      -20.0000000       4.25282049      0.950705826    
  -51.7686501     -0.191007897      -20.0000000       4.54378033      0.948891521    
  -53.3087082     -0.726661325      -20.0000000       4.54378033      0.948891521    
  -53.2043991       1.01675200      -20.0000000       4.54378033      0.948891521    
  -51.7500000       1.29565406      -20.0000000       4.54378033      0.948891521    
  -53.0367393       2.70281792      -20.0000000       5.08284235      0.957894266    
  -53.2043991       1.01675200      -20.0000000       5.08284235      0.957894266    
  -54.6488190       1.11988902      -20.0000000       5.08284235      0.957894266    
  -54.3531990       2.57653904      -20.0000000       5.08284235      0.957894266    
  -45.7804108      -6.25000000      -20.0000000       3.35339856      0.883913219    
  -47.2866096      -6.25000000      -20.0000000       3.35339856      0.883913219    
  -47.2626686      -4.68801212      -20.0000000       3.35339856      0.883913219    
  -45.7679100      -4.68779421      -20.0000000       3.35339856      0.883913219    
  -47.2626686      -4.68801212      -20.0000000       3.50583386      0.902368963    
  -48.7387619      -4.69004917      -20.0000000       3.50583386      0.902368963    
  -48.7254105      -3.12169194      -20.0000000       3.50583386      0.902368963    
  -47.2550507      -3.12222195      -20.0000000       3.50583386      0.902368963    
  -54.5736809       4.04919481      -20.0000000       6.15724230      0.974330902    
  -55.6295395       2.91055298      -20.0000000       6.15724230      0.974330902    
  -56.8836594       3.56473303      -20.0000000       6.15724230      0.974330902    
  -55.8850899       4.68635893      -20.0000000       6.15724230      0.974330902    
  -48.7254105      -3.12169194      -20.0000000       3.77223659      0.919857264    
  -50.1564102      -3.12996602      -20.0000000       3.77223659      0.919857264    
  -50.2854195      -1.59545600      -20.0000000       3.77223659      0.919857264    
  -48.7658615      -1.56390297      -20.0000000       3.77223659      0.919857264    
  -50.2854195      -1.59545600      -20.0000000       4.13922024      0.935783446    
  -51.8859215      -1.67511594      -20.0000000       4.13922024      0.935783446    
  -51.7686501     -0.191007897      -20.0000000       4.13922024      0.935783446    
  -50.2816200      -7.23225027E-02  -20.0000000       4.13922024      0.935783446    
  -55.6295395       2.91055298      -20.0000000       5.67968941      0.964701474    
  -54.5736809       4.04919481      -20.0000000       5.67968941      0.964701474    
  -54.3531990       2.57653904      -20.0000000       5.67968941      0.964701474    
  -54.3531990       2.57653904      -20.0000000       5.67968941      0.964701474    
  -51.6464691       2.90894699      -20.0000000       4.99318075      0.940957367    
  -51.7500000       1.29565406      -20.0000000       4.99318075      0.940957367    
  -53.2043991       1.01675200      -20.0000000       4.99318075      0.940957367    
  -53.0367393       2.70281792      -20.0000000       4.99318075      0.940957367    
  -44.2742119      -6.25000000      -20.0000000       3.28435230      0.861558616    
  -45.7804108      -6.25000000      -20.0000000       3.28435230      0.861558616    
  -45.7679100      -4.68779421      -20.0000000       3.28435230      0.861558616    
  -44.2670212      -4.68766403      -20.0000000       3.28435230      0.861558616    
  -45.7679100      -4.68779421      -20.0000000       3.43042469      0.881881654    
  -47.2626686      -4.68801212      -20.0000000       3.43042469      0.881881654    
  -47.2550507      -3.12222195      -20.0000000       3.43042469      0.881881654    
  -45.7611885      -3.12411094      -20.0000000       3.43042469      0.881881654    
  -51.7500000       1.29565406      -20.0000000       4.47701979      0.931416094    
  -50.2459984       1.47492099      -20.0000000       4.47701979      0.931416094    
  -50.2816200      -7.23225027E-02  -20.0000000       4.47701979      0.931416094    
  -51.7686501     -0.191007897      -20.0000000       4.47701979      0.931416094    
  -47.2550507      -3.12222195      -20.0000000       3.67682910      0.901677787    
  -48.7254105      -3.12169194      -20.0000000       3.67682910      0.901677787    
  -48.7658615      -1.56390297      -20.0000000       3.67682910      0.901677787    
  -47.2643318      -1.55986798      -20.0000000       3.67682910      0.901677787    
  -48.7658615      -1.56390297      -20.0000000       4.02865887      0.918892920    
  -50.2854195      -1.59545600      -20.0000000       4.02865887      0.918892920    
  -50.2816200      -7.23225027E-02  -20.0000000       4.02865887      0.918892920    
  -48.7753716      -1.42937005E-02  -20.0000000       4.02865887      0.918892920    
  -54.5736809       4.04919481      -20.0000000       5.65346766      0.949006855    
  -53.0954399       4.36336088      -20.0000000       5.65346766      0.949006855    
  -53.0367393       2.70281792      -20.0000000       5.65346766      0.949006855    
  -54.3531990       2.57653904      -20.0000000       5.65346766      0.949006855    
  -54.6465797       5.53822613      -20.0000000       6.57987595      0.958889186    
  -54.5736809       4.04919481      -20.0000000       6.57987595      0.958889186    
  -55.8850899       4.68635893      -20.0000000       6.57987595      0.958889186    
  -55.8850899       4.68635893      -20.0000000       6.57987595      0.958889186    
  -44.2670212      -4.68766403      -20.0000000       3.18886924      0.841509998    
  -42.7620697      -4.68767691      -20.0000000       3.18886924      0.841509998    
  -42.7680206      -6.25000000      -20.0000000       3.18886924      0.841509998    
  -44.2742119      -6.25000000      -20.0000000       3.18886924      0.841509998    
  -44.2670212      -4.68766403      -20.0000000       3.33395004      0.862929404    
  -45.7679100      -4.68779421      -20.0000000       3.33395004      0.862929404    
  -45.7611885      -3.12411094      -20.0000000       3.33395004      0.862929404    
  -44.2611694      -3.12488103      -20.0000000       3.33395004      0.862929404    
  -45.7611885      -3.12411094      -20.0000000       3.56946349      0.884358406    
  -47.2550507      -3.12222195      -20.0000000       3.56946349      0.884358406    
  -47.2643318      -1.55986798      -20.0000000       3.56946349      0.884358406    
  -45.7603798      -1.56126106      -20.0000000       3.56946349      0.884358406    
  -50.2459984       1.47492099      -20.0000000       4.91173553      0.926264048    
  -51.7500000       1.29565406      -20.0000000       4.91173553      0.926264048    
  -51.6464691       2.90894699      -20.0000000       4.91173553      0.926264048    
  -50.2011604       3.04989505      -20.0000000       4.91173553      0.926264048    
  -54.6465797       5.53822613      -20.0000000       6.49607420      0.942188919    
  -53.2416306       6.06926107      -20.0000000       6.49607420      0.942188919    
  -53.0954399       4.36336088      -20.0000000       6.49607420      0.942188919    
  -54.5736809       4.04919481      -20.0000000       6.49607420      0.942188919    
  -47.2643318      -1.55986798      -20.0000000       3.90145588      0.903698146    
  -48.7658615      -1.56390297      -20.0000000       3.90145588      0.903698146    
  -48.7753716      -1.42937005E-02  -20.0000000       3.90145588      0.903698146    
  -47.2657204       0.00000000      -20.0000000       3.90145588      0.903698146    
  -48.7753716      -1.42937005E-02  -20.0000000       4.35222578      0.917604387    
  -50.2816200      -7.23225027E-02  -20.0000000       4.35222578      0.917604387    
  -50.2459984       1.47492099      -20.0000000       4.35222578      0.917604387    
  -48.7560692       1.53868604      -20.0000000       4.35222578      0.917604387    
  -51.6464691       2.90894699      -20.0000000       5.59382868      0.932689250    
  -53.0367393       2.70281792      -20.0000000       5.59382868      0.932689250    
  -53.0954399       4.36336088      -20.0000000       5.59382868      0.932689250    
  -51.6648903       4.56408405      -20.0000000       5.59382868      0.932689250    
  -41.2618294      -6.25000000      -20.0000000       3.06993032      0.822778225    
  -42.7680206      -6.25000000      -20.0000000       3.06993032      0.822778225    
  -42.7620697      -4.68767691      -20.0000000       3.06993032      0.822778225    
  -41.2566490      -4.68782711      -20.0000000       3.06993032      0.822778225    
  -44.2611694      -3.12488103      -20.0000000       3.21469712      0.845343888    
  -42.7563400      -3.12513494      -20.0000000       3.21469712      0.845343888    
  -42.7620697      -4.68767691      -20.0000000       3.21469712      0.845343888    
  -44.2670212      -4.68766403      -20.0000000       3.21469712      0.845343888    
  -44.2611694      -3.12488103      -20.0000000       3.44402194      0.867894113    
  -45.7611885      -3.12411094      -20.0000000       3.44402194      0.867894113    
  -45.7603798      -1.56126106      -20.0000000       3.44402194      0.867894113    
  -44.2565308      -1.56226599      -20.0000000       3.44402194      0.867894113    
  -45.7603798      -1.56126106      -20.0000000       3.75704718      0.889491081    
  -47.2643318      -1.55986798      -20.0000000       3.75704718      0.889491081    
  -47.2657204       0.00000000      -20.0000000       3.75704718      0.889491081    
  -45.7582893       0.00000000      -20.0000000       3.75704718      0.889491081    
  -47.2657204       0.00000000      -20.0000000       4.19198751      0.905759692    
  -48.7753716      -1.42937005E-02  -20.0000000       4.19198751      0.905759692    
  -48.7560692       1.53868604      -20.0000000       4.19198751      0.905759692    
  -47.2535896       1.55706894      -20.0000000       4.19198751      0.905759692    
  -48.7560692       1.53868604      -20.0000000       4.77296686      0.915001988    
  -50.2459984       1.47492099      -20.0000000       4.77296686      0.915001988    
  -50.2011604       3.04989505      -20.0000000       4.77296686      0.915001988    
  -48.7281189       3.10503101      -20.0000000       4.77296686      0.915001988    
  -50.2011604       3.04989505      -20.0000000       5.50477123      0.920090675    
  -51.6464691       2.90894699      -20.0000000       5.50477123      0.920090675    
  -51.6648903       4.56408405      -20.0000000       5.50477123      0.920090675    
  -50.2067184       4.64797401      -20.0000000       5.50477123      0.920090675    
  -51.6648903       4.56408405      -20.0000000       6.51433468      0.925538063    
  -53.0954399       4.36336088      -20.0000000       6.51433468      0.925538063    
  -53.2416306       6.06926107      -20.0000000       6.51433468      0.925538063    
  -51.7500000       6.25000000      -20.0000000       6.51433468      0.925538063    
  -39.7556496      -6.25000000      -20.0000000       2.93520045      0.804074883    
  -41.2618294      -6.25000000      -20.0000000       2.93520045      0.804074883    
  -41.2566490      -4.68782711      -20.0000000       2.93520045      0.804074883    
  -39.7507591      -4.68851089      -20.0000000       2.93520045      0.804074883    
  -41.2566490      -4.68782711      -20.0000000       3.07843876      0.828138947    
  -42.7620697      -4.68767691      -20.0000000       3.07843876      0.828138947    
  -42.7563400      -3.12513494      -20.0000000       3.07843876      0.828138947    
  -41.2511406      -3.12541890      -20.0000000       3.07843876      0.828138947    
  -44.2565308      -1.56226599      -20.0000000       3.30153751      0.851905942    
  -42.7509499      -1.56253600      -20.0000000       3.30153751      0.851905942    
  -42.7563400      -3.12513494      -20.0000000       3.30153751      0.851905942    
  -44.2611694      -3.12488103      -20.0000000       3.30153751      0.851905942    
  -44.2565308      -1.56226599      -20.0000000       3.59849691      0.875347435    
  -45.7603798      -1.56126106      -20.0000000       3.59849691      0.875347435    
  -45.7582893       0.00000000      -20.0000000       3.59849691      0.875347435    
  -44.2515602       0.00000000      -20.0000000       3.59849691      0.875347435    
  -45.7582893       0.00000000      -20.0000000       4.00789738      0.894634366    
  -47.2657204       0.00000000      -20.0000000       4.00789738      0.894634366    
  -47.2535896       1.55706894      -20.0000000       4.00789738      0.894634366    
  -45.7509003       1.56100297      -20.0000000       4.00789738      0.894634366    
  -47.2535896       1.55706894      -20.0000000       4.57904291      0.906109035    
  -48.7560692       1.53868604      -20.0000000       4.57904291      0.906109035    
  -48.7281189       3.10503101      -20.0000000       4.57904291      0.906109035    
  -47.2370110       3.11982203      -20.0000000       4.57904291      0.906109035    
  -48.7281189       3.10503101      -20.0000000       5.34284782      0.911111474    
  -50.2011604       3.04989505      -20.0000000       5.34284782      0.911111474    
  -50.2067184       4.64797401      -20.0000000       5.34284782      0.911111474    
  -48.7241211       4.67746210      -20.0000000       5.34284782      0.911111474    
  -50.2067184       4.64797401      -20.0000000       6.42496967      0.914061248    
  -51.6648903       4.56408405      -20.0000000       6.42496967      0.914061248    
  -51.7500000       6.25000000      -20.0000000       6.42496967      0.914061248    
  -50.2455711       6.25000000      -20.0000000       6.42496967      0.914061248    
  -38.2494698      -6.25000000      -20.0000000       2.79293156      0.784333587    
  -39.7556496      -6.25000000      -20.0000000       2.79293156      0.784333587    
  -39.7507591      -4.68851089      -20.0000000       2.79293156      0.784333587    
  -38.2446404      -4.68936491      -20.0000000       2.79293156      0.784333587    
  -39.7507591      -4.68851089      -20.0000000       2.93366528      0.810187876    
  -41.2566490      -4.68782711      -20.0000000       2.93366528      0.810187876    
  -41.2511406      -3.12541890      -20.0000000       2.93366528      0.810187876    
  -39.7453995      -3.12673903      -20.0000000       2.93366528      0.810187876    
  -41.2511406      -3.12541890      -20.0000000       3.14784098      0.835484684    
  -42.7563400      -3.12513494      -20.0000000       3.14784098      0.835484684    
  -42.7509499      -1.56253600      -20.0000000       3.14784098      0.835484684    
  -41.2455711      -1.56282198      -20.0000000       3.14784098      0.835484684    
  -44.2515602       0.00000000      -20.0000000       3.42992878      0.860669196    
  -42.7457504       0.00000000      -20.0000000       3.42992878      0.860669196    
  -42.7509499      -1.56253600      -20.0000000       3.42992878      0.860669196    
  -44.2565308      -1.56226599      -20.0000000       3.42992878      0.860669196    
  -44.2515602       0.00000000      -20.0000000       3.81145740      0.882938623    
  -45.7582893       0.00000000      -20.0000000       3.81145740      0.882938623    
  -45.7509003       1.56100297      -20.0000000       3.81145740      0.882938623    
  -44.2452011       1.56199801      -20.0000000       3.81145740      0.882938623    
  -45.7509003       1.56100297      -20.0000000       4.35264921      0.897907436    
  -47.2535896       1.55706894      -20.0000000       4.35264921      0.897907436    
  -47.2370110       3.11982203      -20.0000000       4.35264921      0.897907436    
  -45.7402802       3.12332392      -20.0000000       4.35264921      0.897907436    
  -47.2370110       3.11982203      -20.0000000       5.11333990      0.904642582    
  -48.7281189       3.10503101      -20.0000000       5.11333990      0.904642582    
  -48.7241211       4.67746210      -20.0000000       5.11333990      0.904642582    
  -47.2300911       4.68496799      -20.0000000       5.11333990      0.904642582    
  -48.7241211       4.67746210      -20.0000000       6.23505640      0.906880617    
  -50.2067184       4.64797401      -20.0000000       6.23505640      0.906880617    
  -50.2455711       6.25000000      -20.0000000       6.23505640      0.906880617    
  -48.7411499       6.25000000      -20.0000000       6.23505640      0.906880617    
  -36.7432899      -6.25000000      -20.0000000       2.64935541      0.762838244    
  -38.2494698      -6.25000000      -20.0000000       2.64935541      0.762838244    
  -38.2446404      -4.68936491      -20.0000000       2.64935541      0.762838244    
  -36.7384796      -4.68897390      -20.0000000       2.64935541      0.762838244    
  -38.2446404      -4.68936491      -20.0000000       2.78743339      0.790519059    
  -39.7507591      -4.68851089      -20.0000000       2.78743339      0.790519059    
  -39.7453995      -3.12673903      -20.0000000       2.78743339      0.790519059    
  -38.2396507      -3.12933803      -20.0000000       2.78743339      0.790519059    
  -39.7453995      -3.12673903      -20.0000000       2.99100637      0.817732096    
  -41.2511406      -3.12541890      -20.0000000       2.99100637      0.817732096    
  -41.2455711      -1.56282198      -20.0000000       2.99100637      0.817732096    
  -39.7399902      -1.56351995      -20.0000000       2.99100637      0.817732096    
  -41.2455711      -1.56282198      -20.0000000       3.25715351      0.844676018    
  -42.7509499      -1.56253600      -20.0000000       3.25715351      0.844676018    
  -42.7457504       0.00000000      -20.0000000       3.25715351      0.844676018    
  -41.2401695       0.00000000      -20.0000000       3.25715351      0.844676018    
  -44.2452011       1.56199801      -20.0000000       3.61172414      0.869749010    
  -42.7402611       1.56238496      -20.0000000       3.61172414      0.869749010    
  -42.7457504       0.00000000      -20.0000000       3.61172414      0.869749010    
  -44.2515602       0.00000000      -20.0000000       3.61172414      0.869749010    
  -44.2452011       1.56199801      -20.0000000       4.11319590      0.888724566    
  -45.7509003       1.56100297      -20.0000000       4.11319590      0.888724566    
  -45.7402802       3.12332392      -20.0000000       4.11319590      0.888724566    
  -44.2380295       3.12447906      -20.0000000       4.11319590      0.888724566    
  -45.7402802       3.12332392      -20.0000000       4.84091759      0.898912191    
  -47.2370110       3.11982203      -20.0000000       4.84091759      0.898912191    
  -47.2300911       4.68496799      -20.0000000       4.84091759      0.898912191    
  -45.7329903       4.68700409      -20.0000000       4.84091759      0.898912191    
  -47.2300911       4.68496799      -20.0000000       5.96624947      0.902474225    
  -48.7241211       4.67746210      -20.0000000       5.96624947      0.902474225    
  -48.7411499       6.25000000      -20.0000000       5.96624947      0.902474225    
  -47.2367287       6.25000000      -20.0000000       5.96624947      0.902474225    
  -35.2371101      -6.25000000      -20.0000000       2.50819254      0.738763213    
  -36.7432899      -6.25000000      -20.0000000       2.50819254      0.738763213    
  -36.7384796      -4.68897390      -20.0000000       2.50819254      0.738763213    
  -35.2325211      -4.68835878      -20.0000000       2.50819254      0.738763213    
  -36.7384796      -4.68897390      -20.0000000       2.64478970      0.768521905    
  -38.2446404      -4.68936491      -20.0000000       2.64478970      0.768521905    
  -38.2396507      -3.12933803      -20.0000000       2.64478970      0.768521905    
  -36.7339096      -3.12783909      -20.0000000       2.64478970      0.768521905    
  -38.2396507      -3.12933803      -20.0000000       2.83667207      0.797865450    
  -39.7453995      -3.12673903      -20.0000000       2.83667207      0.797865450    
  -39.7399902      -1.56351995      -20.0000000       2.83667207      0.797865450    
  -38.2346497      -1.56438303      -20.0000000       2.83667207      0.797865450    
  -39.7399902      -1.56351995      -20.0000000       3.08655357      0.826848328    
  -41.2455711      -1.56282198      -20.0000000       3.08655357      0.826848328    
  -41.2401695       0.00000000      -20.0000000       3.08655357      0.826848328    