 VARIABLES="X" "Y" "Z" "abs(p) (Pa)" "angle(p) (rad)"
ZONE N=   3650,E =    3624, F=FEPOINT, ET=QUADRILATERAL
  -56.5164909      -2.47323704      -20.0000000       16.2658348      -1.36809516    
  -55.4176407      -3.26747894      -20.0000000       16.2658348      -1.36809516    
  -55.9264717      -4.64953518      -20.0000000       16.2658348      -1.36809516    
  -56.9148483      -3.51935697      -20.0000000       16.2658348      -1.36809516    
  -56.9148483      -3.51935697      -20.0000000       16.6171856      -1.34239757    
  -57.6058807      -2.18402195      -20.0000000       16.6171856      -1.34239757    
  -56.5164909      -2.47323704      -20.0000000       16.6171856      -1.34239757    
  -56.5164909      -2.47323704      -20.0000000       16.6171856      -1.34239757    
  -54.6953812      -5.51239681      -20.0000000       16.1945667      -1.40367830    
  -55.9264717      -4.64953518      -20.0000000       16.1945667      -1.40367830    
  -55.4176407      -3.26747894      -20.0000000       16.1945667      -1.40367830    
  -54.2450790      -3.94889998      -20.0000000       16.1945667      -1.40367830    
  -54.2450790      -3.94889998      -20.0000000       16.1870022      -1.43621457    
  -52.9834785      -4.46340179      -20.0000000       16.1870022      -1.43621457    
  -53.2955093      -6.05576801      -20.0000000       16.1870022      -1.43621457    
  -54.6953812      -5.51239681      -20.0000000       16.1870022      -1.43621457    
  -56.5223999      -1.11500299      -20.0000000       16.0641060      -1.32364547    
  -56.5164909      -2.47323704      -20.0000000       16.0641060      -1.32364547    
  -57.6058807      -2.18402195      -20.0000000       16.0641060      -1.32364547    
  -57.9577713     -0.724482894      -20.0000000       16.0641060      -1.32364547    
  -56.5164909      -2.47323704      -20.0000000       15.0718775      -1.35080779    
  -56.5223999      -1.11500299      -20.0000000       15.0718775      -1.35080779    
  -55.1657600      -1.76926601      -20.0000000       15.0718775      -1.35080779    
  -55.4176407      -3.26747894      -20.0000000       15.0718775      -1.35080779    
  -54.2450790      -3.94889998      -20.0000000       14.6808586      -1.38686383    
  -55.4176407      -3.26747894      -20.0000000       14.6808586      -1.38686383    
  -55.1657600      -1.76926601      -20.0000000       14.6808586      -1.38686383    
  -53.8819199      -2.32836604      -20.0000000       14.6808586      -1.38686383    
  -52.9834785      -4.46340179      -20.0000000       16.0763378      -1.45937967    
  -51.6155815      -4.69134283      -20.0000000       16.0763378      -1.45937967    
  -51.8049088      -6.24783087      -20.0000000       16.0763378      -1.45937967    
  -53.2955093      -6.05576801      -20.0000000       16.0763378      -1.45937967    
  -56.3964119      0.254809886      -20.0000000       15.8094950      -1.31312549    
  -56.5223999      -1.11500299      -20.0000000       15.8094950      -1.31312549    
  -57.9577713     -0.724482894      -20.0000000       15.8094950      -1.31312549    
  -57.9511719      0.779103875      -20.0000000       15.8094950      -1.31312549    
  -53.8819199      -2.32836604      -20.0000000       14.5154533      -1.42056763    
  -52.7235603      -2.92538095      -20.0000000       14.5154533      -1.42056763    
  -52.9834785      -4.46340179      -20.0000000       14.5154533      -1.42056763    
  -54.2450790      -3.94889998      -20.0000000       14.5154533      -1.42056763    
  -56.5223999      -1.11500299      -20.0000000       14.5539913      -1.33881593    
  -56.3964119      0.254809886      -20.0000000       14.5539913      -1.33881593    
  -54.8835487     -0.325594515      -20.0000000       14.5539913      -1.33881593    
  -55.1657600      -1.76926601      -20.0000000       14.5539913      -1.33881593    
  -50.2990494      -6.25000000      -20.0000000       15.7469873      -1.46989381    
  -51.8049088      -6.24783087      -20.0000000       15.7469873      -1.46989381    
  -51.6155815      -4.69134283      -20.0000000       15.7469873      -1.46989381    
  -50.1911316      -4.70199823      -20.0000000       15.7469873      -1.46989381    
  -53.8819199      -2.32836604      -20.0000000       13.8811827      -1.37324929    
  -55.1657600      -1.76926601      -20.0000000       13.8811827      -1.37324929    
  -54.8835487     -0.325594515      -20.0000000       13.8811827      -1.37324929    
  -53.3087082     -0.726661325      -20.0000000       13.8811827      -1.37324929    
  -52.7235603      -2.92538095      -20.0000000       14.3500938      -1.44483089    
  -51.4683685      -3.18431592      -20.0000000       14.3500938      -1.44483089    
  -51.6155815      -4.69134283      -20.0000000       14.3500938      -1.44483089    
  -52.9834785      -4.46340179      -20.0000000       14.3500938      -1.44483089    
  -56.1067696       1.60355306      -20.0000000       15.7764235      -1.32078493    
  -56.3964119      0.254809886      -20.0000000       15.7764235      -1.32078493    
  -57.9511719      0.779103875      -20.0000000       15.7764235      -1.32078493    
  -57.5863686       2.23558092      -20.0000000       15.7764235      -1.32078493    
  -56.3964119      0.254809886      -20.0000000       14.4045534      -1.34291232    
  -56.1067696       1.60355306      -20.0000000       14.4045534      -1.34291232    
  -54.6488190       1.11988902      -20.0000000       14.4045534      -1.34291232    
  -54.8835487     -0.325594515      -20.0000000       14.4045534      -1.34291232    
  -51.8859215      -1.67511594      -20.0000000       13.5140715      -1.40453815    
  -52.7235603      -2.92538095      -20.0000000       13.5140715      -1.40453815    
  -53.8819199      -2.32836604      -20.0000000       13.5140715      -1.40453815    
  -53.3087082     -0.726661325      -20.0000000       13.5140715      -1.40453815    
  -48.7928200      -6.25000000      -20.0000000       15.2397604      -1.46720731    
  -50.2990494      -6.25000000      -20.0000000       15.2397604      -1.46720731    
  -50.1911316      -4.70199823      -20.0000000       15.2397604      -1.46720731    
  -48.7387619      -4.69004917      -20.0000000       15.2397604      -1.46720731    
  -50.1911316      -4.70199823      -20.0000000       13.9787960      -1.45304632    
  -51.6155815      -4.69134283      -20.0000000       13.9787960      -1.45304632    
  -51.4683685      -3.18431592      -20.0000000       13.9787960      -1.45304632    
  -50.1564102      -3.12996602      -20.0000000       13.9787960      -1.45304632    
  -54.6488190       1.11988902      -20.0000000       13.5995007      -1.37286878    
  -53.2043991       1.01675200      -20.0000000       13.5995007      -1.37286878    
  -53.3087082     -0.726661325      -20.0000000       13.5995007      -1.37286878    
  -54.8835487     -0.325594515      -20.0000000       13.5995007      -1.37286878    
  -51.4683685      -3.18431592      -20.0000000       13.5017424      -1.42559612    
  -52.7235603      -2.92538095      -20.0000000       13.5017424      -1.42559612    
  -51.8859215      -1.67511594      -20.0000000       13.5017424      -1.42559612    
  -51.8859215      -1.67511594      -20.0000000       13.5017424      -1.42559612    
  -55.6295395       2.91055298      -20.0000000       15.9391298      -1.34506524    
  -56.1067696       1.60355306      -20.0000000       15.9391298      -1.34506524    
  -57.5863686       2.23558092      -20.0000000       15.9391298      -1.34506524    
  -56.8836594       3.56473303      -20.0000000       15.9391298      -1.34506524    
  -47.2866096      -6.25000000      -20.0000000       14.6106987      -1.45423603    
  -48.7928200      -6.25000000      -20.0000000       14.6106987      -1.45423603    
  -48.7387619      -4.69004917      -20.0000000       14.6106987      -1.45423603    
  -47.2626686      -4.68801212      -20.0000000       14.6106987      -1.45423603    
  -48.7387619      -4.69004917      -20.0000000       13.4443235      -1.44471490    
  -50.1911316      -4.70199823      -20.0000000       13.4443235      -1.44471490    
  -50.1564102      -3.12996602      -20.0000000       13.4443235      -1.44471490    
  -48.7254105      -3.12169194      -20.0000000       13.4443235      -1.44471490    
  -50.1564102      -3.12996602      -20.0000000       13.0153255      -1.42557359    
  -51.4683685      -3.18431592      -20.0000000       13.0153255      -1.42557359    
  -51.8859215      -1.67511594      -20.0000000       13.0153255      -1.42557359    
  -50.2854195      -1.59545600      -20.0000000       13.0153255      -1.42557359    
  -54.6488190       1.11988902      -20.0000000       14.5815725      -1.36341000    
  -56.1067696       1.60355306      -20.0000000       14.5815725      -1.36341000    
  -55.6295395       2.91055298      -20.0000000       14.5815725      -1.36341000    
  -54.3531990       2.57653904      -20.0000000       14.5815725      -1.36341000    
  -51.7686501     -0.191007897      -20.0000000       13.0154200      -1.40131068    
  -51.8859215      -1.67511594      -20.0000000       13.0154200      -1.40131068    
  -53.3087082     -0.726661325      -20.0000000       13.0154200      -1.40131068    
  -53.3087082     -0.726661325      -20.0000000       13.0154200      -1.40131068    
  -51.7686501     -0.191007897      -20.0000000       13.0197849      -1.39632738    
  -53.3087082     -0.726661325      -20.0000000       13.0197849      -1.39632738    
  -53.2043991       1.01675200      -20.0000000       13.0197849      -1.39632738    
  -51.7500000       1.29565406      -20.0000000       13.0197849      -1.39632738    
  -53.0367393       2.70281792      -20.0000000       13.8401375      -1.38962710    
  -53.2043991       1.01675200      -20.0000000       13.8401375      -1.38962710    
  -54.6488190       1.11988902      -20.0000000       13.8401375      -1.38962710    
  -54.3531990       2.57653904      -20.0000000       13.8401375      -1.38962710    
  -45.7804108      -6.25000000      -20.0000000       13.8525715      -1.43586934    
  -47.2866096      -6.25000000      -20.0000000       13.8525715      -1.43586934    
  -47.2626686      -4.68801212      -20.0000000       13.8525715      -1.43586934    
  -45.7679100      -4.68779421      -20.0000000       13.8525715      -1.43586934    
  -47.2626686      -4.68801212      -20.0000000       12.8215942      -1.42405128    
  -48.7387619      -4.69004917      -20.0000000       12.8215942      -1.42405128    
  -48.7254105      -3.12169194      -20.0000000       12.8215942      -1.42405128    
  -47.2550507      -3.12222195      -20.0000000       12.8215942      -1.42405128    
  -54.5736809       4.04919481      -20.0000000       16.1559067      -1.38117361    
  -55.6295395       2.91055298      -20.0000000       16.1559067      -1.38117361    
  -56.8836594       3.56473303      -20.0000000       16.1559067      -1.38117361    
  -55.8850899       4.68635893      -20.0000000       16.1559067      -1.38117361    
  -48.7254105      -3.12169194      -20.0000000       12.4713516      -1.41329610    
  -50.1564102      -3.12996602      -20.0000000       12.4713516      -1.41329610    
  -50.2854195      -1.59545600      -20.0000000       12.4713516      -1.41329610    
  -48.7658615      -1.56390297      -20.0000000       12.4713516      -1.41329610    
  -50.2854195      -1.59545600      -20.0000000       12.5650587      -1.40624869    
  -51.8859215      -1.67511594      -20.0000000       12.5650587      -1.40624869    
  -51.7686501     -0.191007897      -20.0000000       12.5650587      -1.40624869    
  -50.2816200      -7.23225027E-02  -20.0000000       12.5650587      -1.40624869    
  -55.6295395       2.91055298      -20.0000000       14.9991503      -1.38876581    
  -54.5736809       4.04919481      -20.0000000       14.9991503      -1.38876581    
  -54.3531990       2.57653904      -20.0000000       14.9991503      -1.38876581    
  -54.3531990       2.57653904      -20.0000000       14.9991503      -1.38876581    
  -51.6464691       2.90894699      -20.0000000       13.3588858      -1.41253340    
  -51.7500000       1.29565406      -20.0000000       13.3588858      -1.41253340    
  -53.2043991       1.01675200      -20.0000000       13.3588858      -1.41253340    
  -53.0367393       2.70281792      -20.0000000       13.3588858      -1.41253340    
  -44.2742119      -6.25000000      -20.0000000       12.9771805      -1.41845238    
  -45.7804108      -6.25000000      -20.0000000       12.9771805      -1.41845238    
  -45.7679100      -4.68779421      -20.0000000       12.9771805      -1.41845238    
  -44.2670212      -4.68766403      -20.0000000       12.9771805      -1.41845238    
  -45.7679100      -4.68779421      -20.0000000       12.0903435      -1.39848650    
  -47.2626686      -4.68801212      -20.0000000       12.0903435      -1.39848650    
  -47.2550507      -3.12222195      -20.0000000       12.0903435      -1.39848650    
  -45.7611885      -3.12411094      -20.0000000       12.0903435      -1.39848650    
  -51.7500000       1.29565406      -20.0000000       12.5100107      -1.40423107    
  -50.2459984       1.47492099      -20.0000000       12.5100107      -1.40423107    
  -50.2816200      -7.23225027E-02  -20.0000000       12.5100107      -1.40423107    
  -51.7686501     -0.191007897      -20.0000000       12.5100107      -1.40423107    
  -47.2550507      -3.12222195      -20.0000000       11.8731565      -1.38718414    
  -48.7254105      -3.12169194      -20.0000000       11.8731565      -1.38718414    
  -48.7658615      -1.56390297      -20.0000000       11.8731565      -1.38718414    
  -47.2643318      -1.55986798      -20.0000000       11.8731565      -1.38718414    
  -48.7658615      -1.56390297      -20.0000000       12.0123816      -1.39178169    
  -50.2854195      -1.59545600      -20.0000000       12.0123816      -1.39178169    
  -50.2816200      -7.23225027E-02  -20.0000000       12.0123816      -1.39178169    
  -48.7753716      -1.42937005E-02  -20.0000000       12.0123816      -1.39178169    
  -54.5736809       4.04919481      -20.0000000       14.6522570      -1.41570032    
  -53.0954399       4.36336088      -20.0000000       14.6522570      -1.41570032    
  -53.0367393       2.70281792      -20.0000000       14.6522570      -1.41570032    
  -54.3531990       2.57653904      -20.0000000       14.6522570      -1.41570032    
  -54.6465797       5.53822613      -20.0000000       16.6883888      -1.40951180    
  -54.5736809       4.04919481      -20.0000000       16.6883888      -1.40951180    
  -55.8850899       4.68635893      -20.0000000       16.6883888      -1.40951180    
  -55.8850899       4.68635893      -20.0000000       16.6883888      -1.40951180    
  -44.2670212      -4.68766403      -20.0000000       12.0234814      -1.40634489    
  -42.7620697      -4.68767691      -20.0000000       12.0234814      -1.40634489    
  -42.7680206      -6.25000000      -20.0000000       12.0234814      -1.40634489    
  -44.2742119      -6.25000000      -20.0000000       12.0234814      -1.40634489    
  -44.2670212      -4.68766403      -20.0000000       11.2726507      -1.37717962    
  -45.7679100      -4.68779421      -20.0000000       11.2726507      -1.37717962    
  -45.7611885      -3.12411094      -20.0000000       11.2726507      -1.37717962    
  -44.2611694      -3.12488103      -20.0000000       11.2726507      -1.37717962    
  -45.7611885      -3.12411094      -20.0000000       11.1955872      -1.35695052    
  -47.2550507      -3.12222195      -20.0000000       11.1955872      -1.35695052    
  -47.2643318      -1.55986798      -20.0000000       11.1955872      -1.35695052    
  -45.7603798      -1.56126106      -20.0000000       11.1955872      -1.35695052    
  -50.2459984       1.47492099      -20.0000000       12.9317446      -1.42215025    
  -51.7500000       1.29565406      -20.0000000       12.9317446      -1.42215025    
  -51.6464691       2.90894699      -20.0000000       12.9317446      -1.42215025    
  -50.2011604       3.04989505      -20.0000000       12.9317446      -1.42215025    
  -54.6465797       5.53822613      -20.0000000       16.2153149      -1.43509686    
  -53.2416306       6.06926107      -20.0000000       16.2153149      -1.43509686    
  -53.0954399       4.36336088      -20.0000000       16.2153149      -1.43509686    
  -54.5736809       4.04919481      -20.0000000       16.2153149      -1.43509686    
  -47.2643318      -1.55986798      -20.0000000       11.4290361      -1.36235595    
  -48.7658615      -1.56390297      -20.0000000       11.4290361      -1.36235595    
  -48.7753716      -1.42937005E-02  -20.0000000       11.4290361      -1.36235595    
  -47.2657204       0.00000000      -20.0000000       11.4290361      -1.36235595    
  -48.7753716      -1.42937005E-02  -20.0000000       11.9951410      -1.39092469    
  -50.2816200      -7.23225027E-02  -20.0000000       11.9951410      -1.39092469    
  -50.2459984       1.47492099      -20.0000000       11.9951410      -1.39092469    
  -48.7560692       1.53868604      -20.0000000       11.9951410      -1.39092469    
  -51.6464691       2.90894699      -20.0000000       14.2671556      -1.44002581    
  -53.0367393       2.70281792      -20.0000000       14.2671556      -1.44002581    
  -53.0954399       4.36336088      -20.0000000       14.2671556      -1.44002581    
  -51.6648903       4.56408405      -20.0000000       14.2671556      -1.44002581    
  -41.2618294      -6.25000000      -20.0000000       11.0416498      -1.40104485    
  -42.7680206      -6.25000000      -20.0000000       11.0416498      -1.40104485    
  -42.7620697      -4.68767691      -20.0000000       11.0416498      -1.40104485    
  -41.2566490      -4.68782711      -20.0000000       11.0416498      -1.40104485    
  -44.2611694      -3.12488103      -20.0000000       10.4076681      -1.36703527    
  -42.7563400      -3.12513494      -20.0000000       10.4076681      -1.36703527    
  -42.7620697      -4.68767691      -20.0000000       10.4076681      -1.36703527    
  -44.2670212      -4.68766403      -20.0000000       10.4076681      -1.36703527    
  -44.2611694      -3.12488103      -20.0000000       10.4349070      -1.33440423    
  -45.7611885      -3.12411094      -20.0000000       10.4349070      -1.33440423    
  -45.7603798      -1.56126106      -20.0000000       10.4349070      -1.33440423    
  -44.2565308      -1.56226599      -20.0000000       10.4349070      -1.33440423    
  -45.7603798      -1.56126106      -20.0000000       10.7835703      -1.32935858    
  -47.2643318      -1.55986798      -20.0000000       10.7835703      -1.32935858    
  -47.2657204       0.00000000      -20.0000000       10.7835703      -1.32935858    
  -45.7582893       0.00000000      -20.0000000       10.7835703      -1.32935858    
  -47.2657204       0.00000000      -20.0000000       11.4250174      -1.36208165    
  -48.7753716      -1.42937005E-02  -20.0000000       11.4250174      -1.36208165    
  -48.7560692       1.53868604      -20.0000000       11.4250174      -1.36208165    
  -47.2535896       1.55706894      -20.0000000       11.4250174      -1.36208165    
  -48.7560692       1.53868604      -20.0000000       12.4473658      -1.41218698    
  -50.2459984       1.47492099      -20.0000000       12.4473658      -1.41218698    
  -50.2011604       3.04989505      -20.0000000       12.4473658      -1.41218698    
  -48.7281189       3.10503101      -20.0000000       12.4473658      -1.41218698    
  -50.2011604       3.04989505      -20.0000000       13.8942194      -1.45048559    
  -51.6464691       2.90894699      -20.0000000       13.8942194      -1.45048559    
  -51.6648903       4.56408405      -20.0000000       13.8942194      -1.45048559    
  -50.2067184       4.64797401      -20.0000000       13.8942194      -1.45048559    
  -51.6648903       4.56408405      -20.0000000       16.0049248      -1.45889688    
  -53.0954399       4.36336088      -20.0000000       16.0049248      -1.45889688    
  -53.2416306       6.06926107      -20.0000000       16.0049248      -1.45889688    
  -51.7500000       6.25000000      -20.0000000       16.0049248      -1.45889688    
  -39.7556496      -6.25000000      -20.0000000       10.0797377      -1.40158021    
  -41.2618294      -6.25000000      -20.0000000       10.0797377      -1.40158021    
  -41.2566490      -4.68782711      -20.0000000       10.0797377      -1.40158021    
  -39.7507591      -4.68851089      -20.0000000       10.0797377      -1.40158021    
  -41.2566490      -4.68782711      -20.0000000       9.54573154      -1.36991143    
  -42.7620697      -4.68767691      -20.0000000       9.54573154      -1.36991143    
  -42.7563400      -3.12513494      -20.0000000       9.54573154      -1.36991143    
  -41.2511406      -3.12541890      -20.0000000       9.54573154      -1.36991143    
  -44.2565308      -1.56226599      -20.0000000       9.62783718      -1.32733536    
  -42.7509499      -1.56253600      -20.0000000       9.62783718      -1.32733536    
  -42.7563400      -3.12513494      -20.0000000       9.62783718      -1.32733536    
  -44.2611694      -3.12488103      -20.0000000       9.62783718      -1.32733536    
  -44.2565308      -1.56226599      -20.0000000       10.0585203      -1.30665946    
  -45.7603798      -1.56126106      -20.0000000       10.0585203      -1.30665946    
  -45.7582893       0.00000000      -20.0000000       10.0585203      -1.30665946    
  -44.2515602       0.00000000      -20.0000000       10.0585203      -1.30665946    
  -45.7582893       0.00000000      -20.0000000       10.7817059      -1.32919705    
  -47.2657204       0.00000000      -20.0000000       10.7817059      -1.32919705    
  -47.2535896       1.55706894      -20.0000000       10.7817059      -1.32919705    
  -45.7509003       1.56100297      -20.0000000       10.7817059      -1.32919705    
  -47.2535896       1.55706894      -20.0000000       11.8670940      -1.38666022    
  -48.7560692       1.53868604      -20.0000000       11.8670940      -1.38666022    
  -48.7281189       3.10503101      -20.0000000       11.8670940      -1.38666022    
  -47.2370110       3.11982203      -20.0000000       11.8670940      -1.38666022    
  -48.7281189       3.10503101      -20.0000000       13.4189901      -1.44387507    
  -50.2011604       3.04989505      -20.0000000       13.4189901      -1.44387507    
  -50.2067184       4.64797401      -20.0000000       13.4189901      -1.44387507    
  -48.7241211       4.67746210      -20.0000000       13.4189901      -1.44387507    
  -50.2067184       4.64797401      -20.0000000       15.6816416      -1.46962833    
  -51.6648903       4.56408405      -20.0000000       15.6816416      -1.46962833    
  -51.7500000       6.25000000      -20.0000000       15.6816416      -1.46962833    
  -50.2455711       6.25000000      -20.0000000       15.6816416      -1.46962833    
  -38.2494698      -6.25000000      -20.0000000       9.17456913      -1.40596473    
  -39.7556496      -6.25000000      -20.0000000       9.17456913      -1.40596473    
  -39.7507591      -4.68851089      -20.0000000       9.17456913      -1.40596473    
  -38.2446404      -4.68936491      -20.0000000       9.17456913      -1.40596473    
  -39.7507591      -4.68851089      -20.0000000       8.73337078      -1.38302648    
  -41.2566490      -4.68782711      -20.0000000       8.73337078      -1.38302648    
  -41.2511406      -3.12541890      -20.0000000       8.73337078      -1.38302648    
  -39.7453995      -3.12673903      -20.0000000       8.73337078      -1.38302648    
  -41.2511406      -3.12541890      -20.0000000       8.82281494      -1.33794320    
  -42.7563400      -3.12513494      -20.0000000       8.82281494      -1.33794320    
  -42.7509499      -1.56253600      -20.0000000       8.82281494      -1.33794320    
  -41.2455711      -1.56282198      -20.0000000       8.82281494      -1.33794320    
  -44.2515602       0.00000000      -20.0000000       9.28154278      -1.30198121    
  -42.7457504       0.00000000      -20.0000000       9.28154278      -1.30198121    
  -42.7509499      -1.56253600      -20.0000000       9.28154278      -1.30198121    
  -44.2565308      -1.56226599      -20.0000000       9.28154278      -1.30198121    
  -44.2515602       0.00000000      -20.0000000       10.0564213      -1.30656493    
  -45.7582893       0.00000000      -20.0000000       10.0564213      -1.30656493    
  -45.7509003       1.56100297      -20.0000000       10.0564213      -1.30656493    
  -44.2452011       1.56199801      -20.0000000       10.0564213      -1.30656493    
  -45.7509003       1.56100297      -20.0000000       11.1912823      -1.35651696    
  -47.2535896       1.55706894      -20.0000000       11.1912823      -1.35651696    
  -47.2370110       3.11982203      -20.0000000       11.1912823      -1.35651696    
  -45.7402802       3.12332392      -20.0000000       11.1912823      -1.35651696    
  -47.2370110       3.11982203      -20.0000000       12.8117704      -1.42340446    
  -48.7281189       3.10503101      -20.0000000       12.8117704      -1.42340446    
  -48.7241211       4.67746210      -20.0000000       12.8117704      -1.42340446    
  -47.2300911       4.68496799      -20.0000000       12.8117704      -1.42340446    
  -48.7241211       4.67746210      -20.0000000       15.2092352      -1.46679521    
  -50.2067184       4.64797401      -20.0000000       15.2092352      -1.46679521    
  -50.2455711       6.25000000      -20.0000000       15.2092352      -1.46679521    
  -48.7411499       6.25000000      -20.0000000       15.2092352      -1.46679521    
  -36.7432899      -6.25000000      -20.0000000       8.33886242      -1.41236842    
  -38.2494698      -6.25000000      -20.0000000       8.33886242      -1.41236842    
  -38.2446404      -4.68936491      -20.0000000       8.33886242      -1.41236842    
  -36.7384796      -4.68897390      -20.0000000       8.33886242      -1.41236842    
  -38.2446404      -4.68936491      -20.0000000       7.99530935      -1.40132594    
  -39.7507591      -4.68851089      -20.0000000       7.99530935      -1.40132594    
  -39.7453995      -3.12673903      -20.0000000       7.99530935      -1.40132594    
  -38.2396507      -3.12933803      -20.0000000       7.99530935      -1.40132594    
  -39.7453995      -3.12673903      -20.0000000       8.07427120      -1.36171019    
  -41.2511406      -3.12541890      -20.0000000       8.07427120      -1.36171019    
  -41.2455711      -1.56282198      -20.0000000       8.07427120      -1.36171019    
  -39.7399902      -1.56351995      -20.0000000       8.07427120      -1.36171019    
  -41.2455711      -1.56282198      -20.0000000       8.50216770      -1.31747949    
  -42.7509499      -1.56253600      -20.0000000       8.50216770      -1.31747949    
  -42.7457504       0.00000000      -20.0000000       8.50216770      -1.31747949    
  -41.2401695       0.00000000      -20.0000000       8.50216770      -1.31747949    
  -44.2452011       1.56199801      -20.0000000       9.27971458      -1.30195665    
  -42.7402611       1.56238496      -20.0000000       9.27971458      -1.30195665    
  -42.7457504       0.00000000      -20.0000000       9.27971458      -1.30195665    
  -44.2515602       0.00000000      -20.0000000       9.27971458      -1.30195665    
  -44.2452011       1.56199801      -20.0000000       10.4306784      -1.33402717    
  -45.7509003       1.56100297      -20.0000000       10.4306784      -1.33402717    
  -45.7402802       3.12332392      -20.0000000       10.4306784      -1.33402717    
  -44.2380295       3.12447906      -20.0000000       10.4306784      -1.33402717    
  -45.7402802       3.12332392      -20.0000000       12.0788231      -1.39786243    
  -47.2370110       3.11982203      -20.0000000       12.0788231      -1.39786243    
  -47.2300911       4.68496799      -20.0000000       12.0788231      -1.39786243    
  -45.7329903       4.68700409      -20.0000000       12.0788231      -1.39786243    
  -47.2300911       4.68496799      -20.0000000       14.5929880      -1.45356703    
  -48.7241211       4.67746210      -20.0000000       14.5929880      -1.45356703    
  -48.7411499       6.25000000      -20.0000000       14.5929880      -1.45356703    
  -47.2367287       6.25000000      -20.0000000       14.5929880      -1.45356703    
  -35.2371101      -6.25000000      -20.0000000       7.56320810      -1.41941476    
  -36.7432899      -6.25000000      -20.0000000       7.56320810      -1.41941476    
  -36.7384796      -4.68897390      -20.0000000       7.56320810      -1.41941476    
  -35.2325211      -4.68835878      -20.0000000       7.56320810      -1.41941476    
  -36.7384796      -4.68897390      -20.0000000       7.33427620      -1.41970670    
  -38.2446404      -4.68936491      -20.0000000       7.33427620      -1.41970670    
  -38.2396507      -3.12933803      -20.0000000       7.33427620      -1.41970670    
  -36.7339096      -3.12783909      -20.0000000       7.33427620      -1.41970670    
  -38.2396507      -3.12933803      -20.0000000       7.40883780      -1.39136422    
  -39.7453995      -3.12673903      -20.0000000       7.40883780      -1.39136422    
  -39.7399902      -1.56351995      -20.0000000       7.40883780      -1.39136422    
  -38.2346497      -1.56438303      -20.0000000       7.40883780      -1.39136422    
  -39.7399902      -1.56351995      -20.0000000       7.78060436      -1.34776270    
  -41.2455711      -1.56282198      -20.0000000       7.78060436      -1.34776270    
  -41.2401695       0.00000000      -20.0000000       7.78060436      -1.34776270    