 VARIABLES="X" "Y" "Z" "abs(p) (Pa)" "angle(p) (rad)"
ZONE N=   3650,E =    3624, F=FEPOINT, ET=QUADRILATERAL
  -56.5164909      -2.47323704      -20.0000000       4432.78516       1.57149637    
  -55.4176407      -3.26747894      -20.0000000       4432.78516       1.57149637    
  -55.9264717      -4.64953518      -20.0000000       4432.78516       1.57149637    
  -56.9148483      -3.51935697      -20.0000000       4432.78516       1.57149637    
  -56.9148483      -3.51935697      -20.0000000       5178.69336       1.57136202    
  -57.6058807      -2.18402195      -20.0000000       5178.69336       1.57136202    
  -56.5164909      -2.47323704      -20.0000000       5178.69336       1.57136202    
  -56.5164909      -2.47323704      -20.0000000       5178.69336       1.57136202    
  -54.6953812      -5.51239681      -20.0000000       3763.18945       1.57170367    
  -55.9264717      -4.64953518      -20.0000000       3763.18945       1.57170367    
  -55.4176407      -3.26747894      -20.0000000       3763.18945       1.57170367    
  -54.2450790      -3.94889998      -20.0000000       3763.18945       1.57170367    
  -54.2450790      -3.94889998      -20.0000000       3111.83032       1.57198822    
  -52.9834785      -4.46340179      -20.0000000       3111.83032       1.57198822    
  -53.2955093      -6.05576801      -20.0000000       3111.83032       1.57198822    
  -54.6953812      -5.51239681      -20.0000000       3111.83032       1.57198822    
  -56.5223999      -1.11500299      -20.0000000       5025.37549       1.57132804    
  -56.5164909      -2.47323704      -20.0000000       5025.37549       1.57132804    
  -57.6058807      -2.18402195      -20.0000000       5025.37549       1.57132804    
  -57.9577713     -0.724482894      -20.0000000       5025.37549       1.57132804    
  -56.5164909      -2.47323704      -20.0000000       3852.43481       1.57151031    
  -56.5223999      -1.11500299      -20.0000000       3852.43481       1.57151031    
  -55.1657600      -1.76926601      -20.0000000       3852.43481       1.57151031    
  -55.4176407      -3.26747894      -20.0000000       3852.43481       1.57151031    
  -54.2450790      -3.94889998      -20.0000000       3225.82007       1.57172275    
  -55.4176407      -3.26747894      -20.0000000       3225.82007       1.57172275    
  -55.1657600      -1.76926601      -20.0000000       3225.82007       1.57172275    
  -53.8819199      -2.32836604      -20.0000000       3225.82007       1.57172275    
  -52.9834785      -4.46340179      -20.0000000       2496.54004       1.57235384    
  -51.6155815      -4.69134283      -20.0000000       2496.54004       1.57235384    
  -51.8049088      -6.24783087      -20.0000000       2496.54004       1.57235384    
  -53.2955093      -6.05576801      -20.0000000       2496.54004       1.57235384    
  -56.3964119      0.254809886      -20.0000000       4992.63867       1.57130456    
  -56.5223999      -1.11500299      -20.0000000       4992.63867       1.57130456    
  -57.9577713     -0.724482894      -20.0000000       4992.63867       1.57130456    
  -57.9511719      0.779103875      -20.0000000       4992.63867       1.57130456    
  -53.8819199      -2.32836604      -20.0000000       2754.15381       1.57196915    
  -52.7235603      -2.92538095      -20.0000000       2754.15381       1.57196915    
  -52.9834785      -4.46340179      -20.0000000       2754.15381       1.57196915    
  -54.2450790      -3.94889998      -20.0000000       2754.15381       1.57196915    
  -56.5223999      -1.11500299      -20.0000000       3675.59424       1.57149303    
  -56.3964119      0.254809886      -20.0000000       3675.59424       1.57149303    
  -54.8835487     -0.325594515      -20.0000000       3675.59424       1.57149303    
  -55.1657600      -1.76926601      -20.0000000       3675.59424       1.57149303    
  -50.2990494      -6.25000000      -20.0000000       1994.82080       1.57275009    
  -51.8049088      -6.24783087      -20.0000000       1994.82080       1.57275009    
  -51.6155815      -4.69134283      -20.0000000       1994.82080       1.57275009    
  -50.1911316      -4.70199823      -20.0000000       1994.82080       1.57275009    
  -53.8819199      -2.32836604      -20.0000000       2992.67505       1.57170773    
  -55.1657600      -1.76926601      -20.0000000       2992.67505       1.57170773    
  -54.8835487     -0.325594515      -20.0000000       2992.67505       1.57170773    
  -53.3087082     -0.726661325      -20.0000000       2992.67505       1.57170773    
  -52.7235603      -2.92538095      -20.0000000       2339.31860       1.57224190    
  -51.4683685      -3.18431592      -20.0000000       2339.31860       1.57224190    
  -51.6155815      -4.69134283      -20.0000000       2339.31860       1.57224190    
  -52.9834785      -4.46340179      -20.0000000       2339.31860       1.57224190    
  -56.1067696       1.60355306      -20.0000000       4867.53223       1.57133055    
  -56.3964119      0.254809886      -20.0000000       4867.53223       1.57133055    
  -57.9511719      0.779103875      -20.0000000       4867.53223       1.57133055    
  -57.5863686       2.23558092      -20.0000000       4867.53223       1.57133055    
  -56.3964119      0.254809886      -20.0000000       3554.72314       1.57151961    
  -56.1067696       1.60355306      -20.0000000       3554.72314       1.57151961    
  -54.6488190       1.11988902      -20.0000000       3554.72314       1.57151961    
  -54.8835487     -0.325594515      -20.0000000       3554.72314       1.57151961    
  -51.8859215      -1.67511594      -20.0000000       2532.77271       1.57194185    
  -52.7235603      -2.92538095      -20.0000000       2532.77271       1.57194185    
  -53.8819199      -2.32836604      -20.0000000       2532.77271       1.57194185    
  -53.3087082     -0.726661325      -20.0000000       2532.77271       1.57194185    
  -48.7928200      -6.25000000      -20.0000000       1629.03662       1.57310224    
  -50.2990494      -6.25000000      -20.0000000       1629.03662       1.57310224    
  -50.1911316      -4.70199823      -20.0000000       1629.03662       1.57310224    
  -48.7387619      -4.69004917      -20.0000000       1629.03662       1.57310224    
  -50.1911316      -4.70199823      -20.0000000       1975.89648       1.57249570    
  -51.6155815      -4.69134283      -20.0000000       1975.89648       1.57249570    
  -51.4683685      -3.18431592      -20.0000000       1975.89648       1.57249570    
  -50.1564102      -3.12996602      -20.0000000       1975.89648       1.57249570    
  -54.6488190       1.11988902      -20.0000000       2871.30151       1.57172704    
  -53.2043991       1.01675200      -20.0000000       2871.30151       1.57172704    
  -53.3087082     -0.726661325      -20.0000000       2871.30151       1.57172704    
  -54.8835487     -0.325594515      -20.0000000       2871.30151       1.57172704    
  -51.4683685      -3.18431592      -20.0000000       2275.16406       1.57213926    
  -52.7235603      -2.92538095      -20.0000000       2275.16406       1.57213926    
  -51.8859215      -1.67511594      -20.0000000       2275.16406       1.57213926    
  -51.8859215      -1.67511594      -20.0000000       2275.16406       1.57213926    
  -55.6295395       2.91055298      -20.0000000       4632.45850       1.57141006    
  -56.1067696       1.60355306      -20.0000000       4632.45850       1.57141006    
  -57.5863686       2.23558092      -20.0000000       4632.45850       1.57141006    
  -56.8836594       3.56473303      -20.0000000       4632.45850       1.57141006    
  -47.2866096      -6.25000000      -20.0000000       1352.44946       1.57340109    
  -48.7928200      -6.25000000      -20.0000000       1352.44946       1.57340109    
  -48.7387619      -4.69004917      -20.0000000       1352.44946       1.57340109    
  -47.2626686      -4.68801212      -20.0000000       1352.44946       1.57340109    
  -48.7387619      -4.69004917      -20.0000000       1677.86414       1.57269311    
  -50.1911316      -4.70199823      -20.0000000       1677.86414       1.57269311    
  -50.1564102      -3.12996602      -20.0000000       1677.86414       1.57269311    
  -48.7254105      -3.12169194      -20.0000000       1677.86414       1.57269311    
  -50.1564102      -3.12996602      -20.0000000       2013.22217       1.57226610    
  -51.4683685      -3.18431592      -20.0000000       2013.22217       1.57226610    
  -51.8859215      -1.67511594      -20.0000000       2013.22217       1.57226610    
  -50.2854195      -1.59545600      -20.0000000       2013.22217       1.57226610    
  -54.6488190       1.11988902      -20.0000000       3445.13037       1.57160151    
  -56.1067696       1.60355306      -20.0000000       3445.13037       1.57160151    
  -55.6295395       2.91055298      -20.0000000       3445.13037       1.57160151    
  -54.3531990       2.57653904      -20.0000000       3445.13037       1.57160151    
  -51.7686501     -0.191007897      -20.0000000       2348.16113       1.57198048    
  -51.8859215      -1.67511594      -20.0000000       2348.16113       1.57198048    
  -53.3087082     -0.726661325      -20.0000000       2348.16113       1.57198048    
  -53.3087082     -0.726661325      -20.0000000       2348.16113       1.57198048    
  -51.7686501     -0.191007897      -20.0000000       2403.12402       1.57193863    
  -53.3087082     -0.726661325      -20.0000000       2403.12402       1.57193863    
  -53.2043991       1.01675200      -20.0000000       2403.12402       1.57193863    
  -51.7500000       1.29565406      -20.0000000       2403.12402       1.57193863    
  -53.0367393       2.70281792      -20.0000000       2822.82617       1.57180583    
  -53.2043991       1.01675200      -20.0000000       2822.82617       1.57180583    
  -54.6488190       1.11988902      -20.0000000       2822.82617       1.57180583    
  -54.3531990       2.57653904      -20.0000000       2822.82617       1.57180583    
  -45.7804108      -6.25000000      -20.0000000       1137.54102       1.57364523    
  -47.2866096      -6.25000000      -20.0000000       1137.54102       1.57364523    
  -47.2626686      -4.68801212      -20.0000000       1137.54102       1.57364523    
  -45.7679100      -4.68779421      -20.0000000       1137.54102       1.57364523    
  -47.2626686      -4.68801212      -20.0000000       1431.58923       1.57283819    
  -48.7387619      -4.69004917      -20.0000000       1431.58923       1.57283819    
  -48.7254105      -3.12169194      -20.0000000       1431.58923       1.57283819    
  -47.2550507      -3.12222195      -20.0000000       1431.58923       1.57283819    
  -54.5736809       4.04919481      -20.0000000       4159.33984       1.57156646    
  -55.6295395       2.91055298      -20.0000000       4159.33984       1.57156646    
  -56.8836594       3.56473303      -20.0000000       4159.33984       1.57156646    
  -55.8850899       4.68635893      -20.0000000       4159.33984       1.57156646    
  -48.7254105      -3.12169194      -20.0000000       1715.83838       1.57241631    
  -50.1564102      -3.12996602      -20.0000000       1715.83838       1.57241631    
  -50.2854195      -1.59545600      -20.0000000       1715.83838       1.57241631    
  -48.7658615      -1.56390297      -20.0000000       1715.83838       1.57241631    
  -50.2854195      -1.59545600      -20.0000000       2042.01086       1.57213795    
  -51.8859215      -1.67511594      -20.0000000       2042.01086       1.57213795    
  -51.7686501     -0.191007897      -20.0000000       2042.01086       1.57213795    
  -50.2816200      -7.23225027E-02  -20.0000000       2042.01086       1.57213795    
  -55.6295395       2.91055298      -20.0000000       3356.22607       1.57170904    
  -54.5736809       4.04919481      -20.0000000       3356.22607       1.57170904    
  -54.3531990       2.57653904      -20.0000000       3356.22607       1.57170904    
  -54.3531990       2.57653904      -20.0000000       3356.22607       1.57170904    
  -51.6464691       2.90894699      -20.0000000       2378.81982       1.57202852    
  -51.7500000       1.29565406      -20.0000000       2378.81982       1.57202852    
  -53.2043991       1.01675200      -20.0000000       2378.81982       1.57202852    
  -53.0367393       2.70281792      -20.0000000       2378.81982       1.57202852    
  -44.2742119      -6.25000000      -20.0000000       972.034241       1.57383800    
  -45.7804108      -6.25000000      -20.0000000       972.034241       1.57383800    
  -45.7679100      -4.68779421      -20.0000000       972.034241       1.57383800    
  -44.2670212      -4.68766403      -20.0000000       972.034241       1.57383800    
  -45.7679100      -4.68779421      -20.0000000       1231.84680       1.57293487    
  -47.2626686      -4.68801212      -20.0000000       1231.84680       1.57293487    
  -47.2550507      -3.12222195      -20.0000000       1231.84680       1.57293487    
  -45.7611885      -3.12411094      -20.0000000       1231.84680       1.57293487    
  -51.7500000       1.29565406      -20.0000000       2029.97839       1.57213485    
  -50.2459984       1.47492099      -20.0000000       2029.97839       1.57213485    
  -50.2816200      -7.23225027E-02  -20.0000000       2029.97839       1.57213485    
  -51.7686501     -0.191007897      -20.0000000       2029.97839       1.57213485    
  -47.2550507      -3.12222195      -20.0000000       1475.78552       1.57250309    
  -48.7254105      -3.12169194      -20.0000000       1475.78552       1.57250309    
  -48.7658615      -1.56390297      -20.0000000       1475.78552       1.57250309    
  -47.2643318      -1.55986798      -20.0000000       1475.78552       1.57250309    
  -48.7658615      -1.56390297      -20.0000000       1739.26135       1.57226956    
  -50.2854195      -1.59545600      -20.0000000       1739.26135       1.57226956    
  -50.2816200      -7.23225027E-02  -20.0000000       1739.26135       1.57226956    
  -48.7753716      -1.42937005E-02  -20.0000000       1739.26135       1.57226956    
  -54.5736809       4.04919481      -20.0000000       2872.91528       1.57191694    
  -53.0954399       4.36336088      -20.0000000       2872.91528       1.57191694    
  -53.0367393       2.70281792      -20.0000000       2872.91528       1.57191694    
  -54.3531990       2.57653904      -20.0000000       2872.91528       1.57191694    
  -54.6465797       5.53822613      -20.0000000       3889.75586       1.57171118    
  -54.5736809       4.04919481      -20.0000000       3889.75586       1.57171118    
  -55.8850899       4.68635893      -20.0000000       3889.75586       1.57171118    
  -55.8850899       4.68635893      -20.0000000       3889.75586       1.57171118    
  -44.2670212      -4.68766403      -20.0000000       846.429382       1.57398748    
  -42.7620697      -4.68767691      -20.0000000       846.429382       1.57398748    
  -42.7680206      -6.25000000      -20.0000000       846.429382       1.57398748    
  -44.2742119      -6.25000000      -20.0000000       846.429382       1.57398748    
  -44.2670212      -4.68766403      -20.0000000       1073.08337       1.57301390    
  -45.7679100      -4.68779421      -20.0000000       1073.08337       1.57301390    
  -45.7611885      -3.12411094      -20.0000000       1073.08337       1.57301390    
  -44.2611694      -3.12488103      -20.0000000       1073.08337       1.57301390    
  -45.7611885      -3.12411094      -20.0000000       1280.90063       1.57254732    
  -47.2550507      -3.12222195      -20.0000000       1280.90063       1.57254732    
  -47.2643318      -1.55986798      -20.0000000       1280.90063       1.57254732    
  -45.7603798      -1.56126106      -20.0000000       1280.90063       1.57254732    
  -50.2459984       1.47492099      -20.0000000       2014.76489       1.57224572    
  -51.7500000       1.29565406      -20.0000000       2014.76489       1.57224572    
  -51.6464691       2.90894699      -20.0000000       2014.76489       1.57224572    
  -50.2011604       3.04989505      -20.0000000       2014.76489       1.57224572    
  -54.6465797       5.53822613      -20.0000000       3140.71460       1.57197595    
  -53.2416306       6.06926107      -20.0000000       3140.71460       1.57197595    
  -53.0954399       4.36336088      -20.0000000       3140.71460       1.57197595    
  -54.5736809       4.04919481      -20.0000000       3140.71460       1.57197595    
  -47.2643318      -1.55986798      -20.0000000       1497.61963       1.57233405    
  -48.7658615      -1.56390297      -20.0000000       1497.61963       1.57233405    
  -48.7753716      -1.42937005E-02  -20.0000000       1497.61963       1.57233405    
  -47.2657204       0.00000000      -20.0000000       1497.61963       1.57233405    
  -48.7753716      -1.42937005E-02  -20.0000000       1737.19714       1.57226682    
  -50.2816200      -7.23225027E-02  -20.0000000       1737.19714       1.57226682    
  -50.2459984       1.47492099      -20.0000000       1737.19714       1.57226682    
  -48.7560692       1.53868604      -20.0000000       1737.19714       1.57226682    
  -51.6464691       2.90894699      -20.0000000       2383.98462       1.57219219    
  -53.0367393       2.70281792      -20.0000000       2383.98462       1.57219219    
  -53.0954399       4.36336088      -20.0000000       2383.98462       1.57219219    
  -51.6648903       4.56408405      -20.0000000       2383.98462       1.57219219    
  -41.2618294      -6.25000000      -20.0000000       754.134827       1.57409739    
  -42.7680206      -6.25000000      -20.0000000       754.134827       1.57409739    
  -42.7620697      -4.68767691      -20.0000000       754.134827       1.57409739    
  -41.2566490      -4.68782711      -20.0000000       754.134827       1.57409739    
  -44.2611694      -3.12488103      -20.0000000       949.246399       1.57310653    
  -42.7563400      -3.12513494      -20.0000000       949.246399       1.57310653    
  -42.7620697      -4.68767691      -20.0000000       949.246399       1.57310653    
  -44.2670212      -4.68766403      -20.0000000       949.246399       1.57310653    
  -44.2611694      -3.12488103      -20.0000000       1124.66602       1.57259202    
  -45.7611885      -3.12411094      -20.0000000       1124.66602       1.57259202    
  -45.7603798      -1.56126106      -20.0000000       1124.66602       1.57259202    
  -44.2565308      -1.56226599      -20.0000000       1124.66602       1.57259202    
  -45.7603798      -1.56126106      -20.0000000       1303.27600       1.57235658    
  -47.2643318      -1.55986798      -20.0000000       1303.27600       1.57235658    
  -47.2657204       0.00000000      -20.0000000       1303.27600       1.57235658    
  -45.7582893       0.00000000      -20.0000000       1303.27600       1.57235658    
  -47.2657204       0.00000000      -20.0000000       1496.69080       1.57233346    
  -48.7753716      -1.42937005E-02  -20.0000000       1496.69080       1.57233346    
  -48.7560692       1.53868604      -20.0000000       1496.69080       1.57233346    
  -47.2535896       1.55706894      -20.0000000       1496.69080       1.57233346    
  -48.7560692       1.53868604      -20.0000000       1715.94299       1.57240975    
  -50.2459984       1.47492099      -20.0000000       1715.94299       1.57240975    
  -50.2011604       3.04989505      -20.0000000       1715.94299       1.57240975    
  -48.7281189       3.10503101      -20.0000000       1715.94299       1.57240975    
  -50.2011604       3.04989505      -20.0000000       1995.82288       1.57246029    
  -51.6464691       2.90894699      -20.0000000       1995.82288       1.57246029    
  -51.6648903       4.56408405      -20.0000000       1995.82288       1.57246029    
  -50.2067184       4.64797401      -20.0000000       1995.82288       1.57246029    
  -51.6648903       4.56408405      -20.0000000       2493.65918       1.57234764    
  -53.0954399       4.36336088      -20.0000000       2493.65918       1.57234764    
  -53.2416306       6.06926107      -20.0000000       2493.65918       1.57234764    
  -51.7500000       6.25000000      -20.0000000       2493.65918       1.57234764    
  -39.7556496      -6.25000000      -20.0000000       689.057861       1.57416832    
  -41.2618294      -6.25000000      -20.0000000       689.057861       1.57416832    
  -41.2566490      -4.68782711      -20.0000000       689.057861       1.57416832    
  -39.7507591      -4.68851089      -20.0000000       689.057861       1.57416832    
  -41.2566490      -4.68782711      -20.0000000       854.830261       1.57322419    
  -42.7620697      -4.68767691      -20.0000000       854.830261       1.57322419    
  -42.7563400      -3.12513494      -20.0000000       854.830261       1.57322419    
  -41.2511406      -3.12541890      -20.0000000       854.830261       1.57322419    
  -44.2565308      -1.56226599      -20.0000000       1001.29919       1.57267594    
  -42.7509499      -1.56253600      -20.0000000       1001.29919       1.57267594    
  -42.7563400      -3.12513494      -20.0000000       1001.29919       1.57267594    
  -44.2611694      -3.12488103      -20.0000000       1001.29919       1.57267594    
  -44.2565308      -1.56226599      -20.0000000       1147.62866       1.57239151    
  -45.7603798      -1.56126106      -20.0000000       1147.62866       1.57239151    
  -45.7582893       0.00000000      -20.0000000       1147.62866       1.57239151    
  -44.2515602       0.00000000      -20.0000000       1147.62866       1.57239151    
  -45.7582893       0.00000000      -20.0000000       1302.46765       1.57235670    
  -47.2657204       0.00000000      -20.0000000       1302.46765       1.57235670    
  -47.2535896       1.55706894      -20.0000000       1302.46765       1.57235670    
  -45.7509003       1.56100297      -20.0000000       1302.46765       1.57235670    
  -47.2535896       1.55706894      -20.0000000       1473.95190       1.57250249    
  -48.7560692       1.53868604      -20.0000000       1473.95190       1.57250249    
  -48.7281189       3.10503101      -20.0000000       1473.95190       1.57250249    
  -47.2370110       3.11982203      -20.0000000       1473.95190       1.57250249    
  -48.7281189       3.10503101      -20.0000000       1680.53149       1.57268369    
  -50.2011604       3.04989505      -20.0000000       1680.53149       1.57268369    
  -50.2067184       4.64797401      -20.0000000       1680.53149       1.57268369    
  -48.7241211       4.67746210      -20.0000000       1680.53149       1.57268369    
  -50.2067184       4.64797401      -20.0000000       1991.79541       1.57274437    
  -51.6648903       4.56408405      -20.0000000       1991.79541       1.57274437    
  -51.7500000       6.25000000      -20.0000000       1991.79541       1.57274437    
  -50.2455711       6.25000000      -20.0000000       1991.79541       1.57274437    
  -38.2494698      -6.25000000      -20.0000000       646.297241       1.57420111    
  -39.7556496      -6.25000000      -20.0000000       646.297241       1.57420111    
  -39.7507591      -4.68851089      -20.0000000       646.297241       1.57420111    
  -38.2446404      -4.68936491      -20.0000000       646.297241       1.57420111    
  -39.7507591      -4.68851089      -20.0000000       784.765869       1.57335401    
  -41.2566490      -4.68782711      -20.0000000       784.765869       1.57335401    
  -41.2511406      -3.12541890      -20.0000000       784.765869       1.57335401    
  -39.7453995      -3.12673903      -20.0000000       784.765869       1.57335401    
  -41.2511406      -3.12541890      -20.0000000       905.810181       1.57281125    
  -42.7563400      -3.12513494      -20.0000000       905.810181       1.57281125    
  -42.7509499      -1.56253600      -20.0000000       905.810181       1.57281125    
  -41.2455711      -1.56282198      -20.0000000       905.810181       1.57281125    
  -44.2515602       0.00000000      -20.0000000       1024.44458       1.57247651    
  -42.7457504       0.00000000      -20.0000000       1024.44458       1.57247651    
  -42.7509499      -1.56253600      -20.0000000       1024.44458       1.57247651    
  -44.2565308      -1.56226599      -20.0000000       1024.44458       1.57247651    
  -44.2515602       0.00000000      -20.0000000       1146.99841       1.57239175    
  -45.7582893       0.00000000      -20.0000000       1146.99841       1.57239175    
  -45.7509003       1.56100297      -20.0000000       1146.99841       1.57239175    
  -44.2452011       1.56199801      -20.0000000       1146.99841       1.57239175    
  -45.7509003       1.56100297      -20.0000000       1278.46277       1.57254827    
  -47.2535896       1.55706894      -20.0000000       1278.46277       1.57254827    
  -47.2370110       3.11982203      -20.0000000       1278.46277       1.57254827    
  -45.7402802       3.12332392      -20.0000000       1278.46277       1.57254827    
  -47.2370110       3.11982203      -20.0000000       1428.37048       1.57283866    
  -48.7281189       3.10503101      -20.0000000       1428.37048       1.57283866    
  -48.7241211       4.67746210      -20.0000000       1428.37048       1.57283866    
  -47.2300911       4.68496799      -20.0000000       1428.37048       1.57283866    
  -48.7241211       4.67746210      -20.0000000       1623.36719       1.57310402    
  -50.2067184       4.64797401      -20.0000000       1623.36719       1.57310402    
  -50.2455711       6.25000000      -20.0000000       1623.36719       1.57310402    
  -48.7411499       6.25000000      -20.0000000       1623.36719       1.57310402    
  -36.7432899      -6.25000000      -20.0000000       621.653625       1.57418811    
  -38.2494698      -6.25000000      -20.0000000       621.653625       1.57418811    
  -38.2446404      -4.68936491      -20.0000000       621.653625       1.57418811    
  -36.7384796      -4.68897390      -20.0000000       621.653625       1.57418811    
  -38.2446404      -4.68936491      -20.0000000       735.365173       1.57347047    
  -39.7507591      -4.68851089      -20.0000000       735.365173       1.57347047    
  -39.7453995      -3.12673903      -20.0000000       735.365173       1.57347047    
  -38.2396507      -3.12933803      -20.0000000       735.365173       1.57347047    
  -39.7453995      -3.12673903      -20.0000000       833.282104       1.57297683    
  -41.2511406      -3.12541890      -20.0000000       833.282104       1.57297683    
  -41.2455711      -1.56282198      -20.0000000       833.282104       1.57297683    
  -39.7399902      -1.56351995      -20.0000000       833.282104       1.57297683    
  -41.2455711      -1.56282198      -20.0000000       928.610413       1.57262433    
  -42.7509499      -1.56253600      -20.0000000       928.610413       1.57262433    
  -42.7457504       0.00000000      -20.0000000       928.610413       1.57262433    
  -41.2401695       0.00000000      -20.0000000       928.610413       1.57262433    
  -44.2452011       1.56199801      -20.0000000       1023.92615       1.57247710    
  -42.7402611       1.56238496      -20.0000000       1023.92615       1.57247710    
  -42.7457504       0.00000000      -20.0000000       1023.92615       1.57247710    
  -44.2515602       0.00000000      -20.0000000       1023.92615       1.57247710    
  -44.2452011       1.56199801      -20.0000000       1122.35022       1.57259369    
  -45.7509003       1.56100297      -20.0000000       1122.35022       1.57259369    
  -45.7402802       3.12332392      -20.0000000       1122.35022       1.57259369    
  -44.2380295       3.12447906      -20.0000000       1122.35022       1.57259369    
  -45.7402802       3.12332392      -20.0000000       1227.83875       1.57293725    
  -47.2370110       3.11982203      -20.0000000       1227.83875       1.57293725    
  -47.2300911       4.68496799      -20.0000000       1227.83875       1.57293725    
  -45.7329903       4.68700409      -20.0000000       1227.83875       1.57293725    
  -47.2300911       4.68496799      -20.0000000       1345.49341       1.57340825    
  -48.7241211       4.67746210      -20.0000000       1345.49341       1.57340825    
  -48.7411499       6.25000000      -20.0000000       1345.49341       1.57340825    
  -47.2367287       6.25000000      -20.0000000       1345.49341       1.57340825    
  -35.2371101      -6.25000000      -20.0000000       612.224976       1.57411122    
  -36.7432899      -6.25000000      -20.0000000       612.224976       1.57411122    
  -36.7384796      -4.68897390      -20.0000000       612.224976       1.57411122    
  -35.2325211      -4.68835878      -20.0000000       612.224976       1.57411122    
  -36.7384796      -4.68897390      -20.0000000       702.963074       1.57354939    
  -38.2446404      -4.68936491      -20.0000000       702.963074       1.57354939    
  -38.2396507      -3.12933803      -20.0000000       702.963074       1.57354939    
  -36.7339096      -3.12783909      -20.0000000       702.963074       1.57354939    
  -38.2396507      -3.12933803      -20.0000000       780.731201       1.57313645    
  -39.7453995      -3.12673903      -20.0000000       780.731201       1.57313645    
  -39.7399902      -1.56351995      -20.0000000       780.731201       1.57313645    
  -38.2346497      -1.56438303      -20.0000000       780.731201       1.57313645    
  -39.7399902      -1.56351995      -20.0000000       855.084045       1.57280922    
  -41.2455711      -1.56282198      -20.0000000       855.084045       1.57280922    
  -41.2401695       0.00000000      -20.0000000       855.084045       1.57280922    