 VARIABLES="X" "Y" "Z" "abs(p) (Pa)" "angle(p) (rad)"
ZONE N=   3650,E =    3624, F=FEPOINT, ET=QUADRILATERAL
  -56.5164909      -2.47323704      -20.0000000       10515.4834       1.57079577    
  -55.4176407      -3.26747894      -20.0000000       10515.4834       1.57079577    
  -55.9264717      -4.64953518      -20.0000000       10515.4834       1.57079577    
  -56.9148483      -3.51935697      -20.0000000       10515.4834       1.57079577    
  -56.9148483      -3.51935697      -20.0000000       9478.46387       1.57079613    
  -57.6058807      -2.18402195      -20.0000000       9478.46387       1.57079613    
  -56.5164909      -2.47323704      -20.0000000       9478.46387       1.57079613    
  -56.5164909      -2.47323704      -20.0000000       9478.46387       1.57079613    
  -54.6953812      -5.51239681      -20.0000000       11138.6475       1.57079542    
  -55.9264717      -4.64953518      -20.0000000       11138.6475       1.57079542    
  -55.4176407      -3.26747894      -20.0000000       11138.6475       1.57079542    
  -54.2450790      -3.94889998      -20.0000000       11138.6475       1.57079542    
  -54.2450790      -3.94889998      -20.0000000       11607.0586       1.57079518    
  -52.9834785      -4.46340179      -20.0000000       11607.0586       1.57079518    
  -53.2955093      -6.05576801      -20.0000000       11607.0586       1.57079518    
  -54.6953812      -5.51239681      -20.0000000       11607.0586       1.57079518    
  -56.5223999      -1.11500299      -20.0000000       10364.4941       1.57079637    
  -56.5164909      -2.47323704      -20.0000000       10364.4941       1.57079637    
  -57.6058807      -2.18402195      -20.0000000       10364.4941       1.57079637    
  -57.9577713     -0.724482894      -20.0000000       10364.4941       1.57079637    
  -56.5164909      -2.47323704      -20.0000000       12737.9219       1.57079601    
  -56.5223999      -1.11500299      -20.0000000       12737.9219       1.57079601    
  -55.1657600      -1.76926601      -20.0000000       12737.9219       1.57079601    
  -55.4176407      -3.26747894      -20.0000000       12737.9219       1.57079601    
  -54.2450790      -3.94889998      -20.0000000       13935.3945       1.57079577    
  -55.4176407      -3.26747894      -20.0000000       13935.3945       1.57079577    
  -55.1657600      -1.76926601      -20.0000000       13935.3945       1.57079577    
  -53.8819199      -2.32836604      -20.0000000       13935.3945       1.57079577    
  -52.9834785      -4.46340179      -20.0000000       12108.6533       1.57079530    
  -51.6155815      -4.69134283      -20.0000000       12108.6533       1.57079530    
  -51.8049088      -6.24783087      -20.0000000       12108.6533       1.57079530    
  -53.2955093      -6.05576801      -20.0000000       12108.6533       1.57079530    
  -56.3964119      0.254809886      -20.0000000       10765.6348       1.57079649    
  -56.5223999      -1.11500299      -20.0000000       10765.6348       1.57079649    
  -57.9577713     -0.724482894      -20.0000000       10765.6348       1.57079649    
  -57.9511719      0.779103875      -20.0000000       10765.6348       1.57079649    
  -53.8819199      -2.32836604      -20.0000000       14632.7686       1.57079566    
  -52.7235603      -2.92538095      -20.0000000       14632.7686       1.57079566    
  -52.9834785      -4.46340179      -20.0000000       14632.7686       1.57079566    
  -54.2450790      -3.94889998      -20.0000000       14632.7686       1.57079566    
  -56.5223999      -1.11500299      -20.0000000       13678.6914       1.57079613    
  -56.3964119      0.254809886      -20.0000000       13678.6914       1.57079613    
  -54.8835487     -0.325594515      -20.0000000       13678.6914       1.57079613    
  -55.1657600      -1.76926601      -20.0000000       13678.6914       1.57079613    
  -50.2990494      -6.25000000      -20.0000000       12731.3936       1.57079530    
  -51.8049088      -6.24783087      -20.0000000       12731.3936       1.57079530    
  -51.6155815      -4.69134283      -20.0000000       12731.3936       1.57079530    
  -50.1911316      -4.70199823      -20.0000000       12731.3936       1.57079530    
  -53.8819199      -2.32836604      -20.0000000       15372.1113       1.57079589    
  -55.1657600      -1.76926601      -20.0000000       15372.1113       1.57079589    
  -54.8835487     -0.325594515      -20.0000000       15372.1113       1.57079589    
  -53.3087082     -0.726661325      -20.0000000       15372.1113       1.57079589    
  -52.7235603      -2.92538095      -20.0000000       15189.6250       1.57079566    
  -51.4683685      -3.18431592      -20.0000000       15189.6250       1.57079566    
  -51.6155815      -4.69134283      -20.0000000       15189.6250       1.57079566    
  -52.9834785      -4.46340179      -20.0000000       15189.6250       1.57079566    
  -56.1067696       1.60355306      -20.0000000       10920.6914       1.57079637    
  -56.3964119      0.254809886      -20.0000000       10920.6914       1.57079637    
  -57.9511719      0.779103875      -20.0000000       10920.6914       1.57079637    
  -57.5863686       2.23558092      -20.0000000       10920.6914       1.57079637    
  -56.3964119      0.254809886      -20.0000000       14025.4014       1.57079601    
  -56.1067696       1.60355306      -20.0000000       14025.4014       1.57079601    
  -54.6488190       1.11988902      -20.0000000       14025.4014       1.57079601    
  -54.8835487     -0.325594515      -20.0000000       14025.4014       1.57079601    
  -51.8859215      -1.67511594      -20.0000000       16364.0029       1.57079577    
  -52.7235603      -2.92538095      -20.0000000       16364.0029       1.57079577    
  -53.8819199      -2.32836604      -20.0000000       16364.0029       1.57079577    
  -53.3087082     -0.726661325      -20.0000000       16364.0029       1.57079577    
  -48.7928200      -6.25000000      -20.0000000       13317.7637       1.57079530    
  -50.2990494      -6.25000000      -20.0000000       13317.7637       1.57079530    
  -50.1911316      -4.70199823      -20.0000000       13317.7637       1.57079530    
  -48.7387619      -4.69004917      -20.0000000       13317.7637       1.57079530    
  -50.1911316      -4.70199823      -20.0000000       15862.9619       1.57079554    
  -51.6155815      -4.69134283      -20.0000000       15862.9619       1.57079554    
  -51.4683685      -3.18431592      -20.0000000       15862.9619       1.57079554    
  -50.1564102      -3.12996602      -20.0000000       15862.9619       1.57079554    
  -54.6488190       1.11988902      -20.0000000       15905.6250       1.57079589    
  -53.2043991       1.01675200      -20.0000000       15905.6250       1.57079589    
  -53.3087082     -0.726661325      -20.0000000       15905.6250       1.57079589    
  -54.8835487     -0.325594515      -20.0000000       15905.6250       1.57079589    
  -51.4683685      -3.18431592      -20.0000000       16581.4160       1.57079577    
  -52.7235603      -2.92538095      -20.0000000       16581.4160       1.57079577    
  -51.8859215      -1.67511594      -20.0000000       16581.4160       1.57079577    
  -51.8859215      -1.67511594      -20.0000000       16581.4160       1.57079577    
  -55.6295395       2.91055298      -20.0000000       10876.7686       1.57079613    
  -56.1067696       1.60355306      -20.0000000       10876.7686       1.57079613    
  -57.5863686       2.23558092      -20.0000000       10876.7686       1.57079613    
  -56.8836594       3.56473303      -20.0000000       10876.7686       1.57079613    
  -47.2866096      -6.25000000      -20.0000000       13757.1973       1.57079518    
  -48.7928200      -6.25000000      -20.0000000       13757.1973       1.57079518    
  -48.7387619      -4.69004917      -20.0000000       13757.1973       1.57079518    
  -47.2626686      -4.68801212      -20.0000000       13757.1973       1.57079518    
  -48.7387619      -4.69004917      -20.0000000       16530.1406       1.57079554    
  -50.1911316      -4.70199823      -20.0000000       16530.1406       1.57079554    
  -50.1564102      -3.12996602      -20.0000000       16530.1406       1.57079554    
  -48.7254105      -3.12169194      -20.0000000       16530.1406       1.57079554    
  -50.1564102      -3.12996602      -20.0000000       17410.0508       1.57079566    
  -51.4683685      -3.18431592      -20.0000000       17410.0508       1.57079566    
  -51.8859215      -1.67511594      -20.0000000       17410.0508       1.57079566    
  -50.2854195      -1.59545600      -20.0000000       17410.0508       1.57079566    
  -54.6488190       1.11988902      -20.0000000       13878.6826       1.57079601    
  -56.1067696       1.60355306      -20.0000000       13878.6826       1.57079601    
  -55.6295395       2.91055298      -20.0000000       13878.6826       1.57079601    
  -54.3531990       2.57653904      -20.0000000       13878.6826       1.57079601    
  -51.7686501     -0.191007897      -20.0000000       17246.9961       1.57079577    
  -51.8859215      -1.67511594      -20.0000000       17246.9961       1.57079577    
  -53.3087082     -0.726661325      -20.0000000       17246.9961       1.57079577    
  -53.3087082     -0.726661325      -20.0000000       17246.9961       1.57079577    
  -51.7686501     -0.191007897      -20.0000000       17181.5938       1.57079589    
  -53.3087082     -0.726661325      -20.0000000       17181.5938       1.57079589    
  -53.2043991       1.01675200      -20.0000000       17181.5938       1.57079589    
  -51.7500000       1.29565406      -20.0000000       17181.5938       1.57079589    
  -53.0367393       2.70281792      -20.0000000       15615.3750       1.57079589    
  -53.2043991       1.01675200      -20.0000000       15615.3750       1.57079589    
  -54.6488190       1.11988902      -20.0000000       15615.3750       1.57079589    
  -54.3531990       2.57653904      -20.0000000       15615.3750       1.57079589    
  -45.7804108      -6.25000000      -20.0000000       14093.2275       1.57079518    
  -47.2866096      -6.25000000      -20.0000000       14093.2275       1.57079518    
  -47.2626686      -4.68801212      -20.0000000       14093.2275       1.57079518    
  -45.7679100      -4.68779421      -20.0000000       14093.2275       1.57079518    
  -47.2626686      -4.68801212      -20.0000000       17041.3594       1.57079554    
  -48.7387619      -4.69004917      -20.0000000       17041.3594       1.57079554    
  -48.7254105      -3.12169194      -20.0000000       17041.3594       1.57079554    
  -47.2550507      -3.12222195      -20.0000000       17041.3594       1.57079554    
  -54.5736809       4.04919481      -20.0000000       10913.2656       1.57079566    
  -55.6295395       2.91055298      -20.0000000       10913.2656       1.57079566    
  -56.8836594       3.56473303      -20.0000000       10913.2656       1.57079566    
  -55.8850899       4.68635893      -20.0000000       10913.2656       1.57079566    
  -48.7254105      -3.12169194      -20.0000000       18143.1895       1.57079566    
  -50.1564102      -3.12996602      -20.0000000       18143.1895       1.57079566    
  -50.2854195      -1.59545600      -20.0000000       18143.1895       1.57079566    
  -48.7658615      -1.56390297      -20.0000000       18143.1895       1.57079566    
  -50.2854195      -1.59545600      -20.0000000       18059.0156       1.57079577    
  -51.8859215      -1.67511594      -20.0000000       18059.0156       1.57079577    
  -51.7686501     -0.191007897      -20.0000000       18059.0156       1.57079577    
  -50.2816200      -7.23225027E-02  -20.0000000       18059.0156       1.57079577    
  -55.6295395       2.91055298      -20.0000000       13325.3145       1.57079577    
  -54.5736809       4.04919481      -20.0000000       13325.3145       1.57079577    
  -54.3531990       2.57653904      -20.0000000       13325.3145       1.57079577    
  -54.3531990       2.57653904      -20.0000000       13325.3145       1.57079577    
  -51.6464691       2.90894699      -20.0000000       16721.8965       1.57079577    
  -51.7500000       1.29565406      -20.0000000       16721.8965       1.57079577    
  -53.2043991       1.01675200      -20.0000000       16721.8965       1.57079577    
  -53.0367393       2.70281792      -20.0000000       16721.8965       1.57079577    
  -44.2742119      -6.25000000      -20.0000000       14362.0684       1.57079518    
  -45.7804108      -6.25000000      -20.0000000       14362.0684       1.57079518    
  -45.7679100      -4.68779421      -20.0000000       14362.0684       1.57079518    
  -44.2670212      -4.68766403      -20.0000000       14362.0684       1.57079518    
  -45.7679100      -4.68779421      -20.0000000       17443.0059       1.57079542    
  -47.2626686      -4.68801212      -20.0000000       17443.0059       1.57079542    
  -47.2550507      -3.12222195      -20.0000000       17443.0059       1.57079542    
  -45.7611885      -3.12411094      -20.0000000       17443.0059       1.57079542    
  -51.7500000       1.29565406      -20.0000000       18141.9453       1.57079577    
  -50.2459984       1.47492099      -20.0000000       18141.9453       1.57079577    
  -50.2816200      -7.23225027E-02  -20.0000000       18141.9453       1.57079577    
  -51.7686501     -0.191007897      -20.0000000       18141.9453       1.57079577    
  -47.2550507      -3.12222195      -20.0000000       18704.9941       1.57079554    
  -48.7254105      -3.12169194      -20.0000000       18704.9941       1.57079554    
  -48.7658615      -1.56390297      -20.0000000       18704.9941       1.57079554    
  -47.2643318      -1.55986798      -20.0000000       18704.9941       1.57079554    
  -48.7658615      -1.56390297      -20.0000000       18848.7148       1.57079566    
  -50.2854195      -1.59545600      -20.0000000       18848.7148       1.57079566    
  -50.2816200      -7.23225027E-02  -20.0000000       18848.7148       1.57079566    
  -48.7753716      -1.42937005E-02  -20.0000000       18848.7148       1.57079566    
  -54.5736809       4.04919481      -20.0000000       14324.1016       1.57079577    
  -53.0954399       4.36336088      -20.0000000       14324.1016       1.57079577    
  -53.0367393       2.70281792      -20.0000000       14324.1016       1.57079577    
  -54.3531990       2.57653904      -20.0000000       14324.1016       1.57079577    
  -54.6465797       5.53822613      -20.0000000       10275.1045       1.57079518    
  -54.5736809       4.04919481      -20.0000000       10275.1045       1.57079518    
  -55.8850899       4.68635893      -20.0000000       10275.1045       1.57079518    
  -55.8850899       4.68635893      -20.0000000       10275.1045       1.57079518    
  -44.2670212      -4.68766403      -20.0000000       14583.3584       1.57079518    
  -42.7620697      -4.68767691      -20.0000000       14583.3584       1.57079518    
  -42.7680206      -6.25000000      -20.0000000       14583.3584       1.57079518    
  -44.2742119      -6.25000000      -20.0000000       14583.3584       1.57079518    
  -44.2670212      -4.68766403      -20.0000000       17768.2500       1.57079542    
  -45.7679100      -4.68779421      -20.0000000       17768.2500       1.57079542    
  -45.7611885      -3.12411094      -20.0000000       17768.2500       1.57079542    
  -44.2611694      -3.12488103      -20.0000000       17768.2500       1.57079542    
  -45.7611885      -3.12411094      -20.0000000       19148.1035       1.57079554    
  -47.2550507      -3.12222195      -20.0000000       19148.1035       1.57079554    
  -47.2643318      -1.55986798      -20.0000000       19148.1035       1.57079554    
  -45.7603798      -1.56126106      -20.0000000       19148.1035       1.57079554    
  -50.2459984       1.47492099      -20.0000000       17532.9512       1.57079577    
  -51.7500000       1.29565406      -20.0000000       17532.9512       1.57079577    
  -51.6464691       2.90894699      -20.0000000       17532.9512       1.57079577    
  -50.2011604       3.04989505      -20.0000000       17532.9512       1.57079577    
  -54.6465797       5.53822613      -20.0000000       11546.1182       1.57079530    
  -53.2416306       6.06926107      -20.0000000       11546.1182       1.57079530    
  -53.0954399       4.36336088      -20.0000000       11546.1182       1.57079530    
  -54.5736809       4.04919481      -20.0000000       11546.1182       1.57079530    
  -47.2643318      -1.55986798      -20.0000000       19446.9141       1.57079566    
  -48.7658615      -1.56390297      -20.0000000       19446.9141       1.57079566    
  -48.7753716      -1.42937005E-02  -20.0000000       19446.9141       1.57079566    
  -47.2657204       0.00000000      -20.0000000       19446.9141       1.57079566    
  -48.7753716      -1.42937005E-02  -20.0000000       18871.6445       1.57079566    
  -50.2816200      -7.23225027E-02  -20.0000000       18871.6445       1.57079566    
  -50.2459984       1.47492099      -20.0000000       18871.6445       1.57079566    
  -48.7560692       1.53868604      -20.0000000       18871.6445       1.57079566    
  -51.6464691       2.90894699      -20.0000000       15306.8535       1.57079566    
  -53.0367393       2.70281792      -20.0000000       15306.8535       1.57079566    
  -53.0954399       4.36336088      -20.0000000       15306.8535       1.57079566    
  -51.6648903       4.56408405      -20.0000000       15306.8535       1.57079566    
  -41.2618294      -6.25000000      -20.0000000       14768.6523       1.57079530    
  -42.7680206      -6.25000000      -20.0000000       14768.6523       1.57079530    
  -42.7620697      -4.68767691      -20.0000000       14768.6523       1.57079530    
  -41.2566490      -4.68782711      -20.0000000       14768.6523       1.57079530    
  -44.2611694      -3.12488103      -20.0000000       18037.1758       1.57079542    
  -42.7563400      -3.12513494      -20.0000000       18037.1758       1.57079542    
  -42.7620697      -4.68767691      -20.0000000       18037.1758       1.57079542    
  -44.2670212      -4.68766403      -20.0000000       18037.1758       1.57079542    
  -44.2611694      -3.12488103      -20.0000000       19507.2715       1.57079554    
  -45.7611885      -3.12411094      -20.0000000       19507.2715       1.57079554    
  -45.7603798      -1.56126106      -20.0000000       19507.2715       1.57079554    
  -44.2565308      -1.56226599      -20.0000000       19507.2715       1.57079554    
  -45.7603798      -1.56126106      -20.0000000       19915.4863       1.57079554    
  -47.2643318      -1.55986798      -20.0000000       19915.4863       1.57079554    
  -47.2657204       0.00000000      -20.0000000       19915.4863       1.57079554    
  -45.7582893       0.00000000      -20.0000000       19915.4863       1.57079554    
  -47.2657204       0.00000000      -20.0000000       19451.8047       1.57079566    
  -48.7753716      -1.42937005E-02  -20.0000000       19451.8047       1.57079566    
  -48.7560692       1.53868604      -20.0000000       19451.8047       1.57079566    
  -47.2535896       1.55706894      -20.0000000       19451.8047       1.57079566    
  -48.7560692       1.53868604      -20.0000000       18179.3457       1.57079566    
  -50.2459984       1.47492099      -20.0000000       18179.3457       1.57079566    
  -50.2011604       3.04989505      -20.0000000       18179.3457       1.57079566    
  -48.7281189       3.10503101      -20.0000000       18179.3457       1.57079566    
  -50.2011604       3.04989505      -20.0000000       16008.4961       1.57079566    
  -51.6464691       2.90894699      -20.0000000       16008.4961       1.57079566    
  -51.6648903       4.56408405      -20.0000000       16008.4961       1.57079566    
  -50.2067184       4.64797401      -20.0000000       16008.4961       1.57079566    
  -51.6648903       4.56408405      -20.0000000       12243.2578       1.57079530    
  -53.0954399       4.36336088      -20.0000000       12243.2578       1.57079530    
  -53.2416306       6.06926107      -20.0000000       12243.2578       1.57079530    
  -51.7500000       6.25000000      -20.0000000       12243.2578       1.57079530    
  -39.7556496      -6.25000000      -20.0000000       14929.3789       1.57079530    
  -41.2618294      -6.25000000      -20.0000000       14929.3789       1.57079530    
  -41.2566490      -4.68782711      -20.0000000       14929.3789       1.57079530    
  -39.7507591      -4.68851089      -20.0000000       14929.3789       1.57079530    
  -41.2566490      -4.68782711      -20.0000000       18263.1523       1.57079542    
  -42.7620697      -4.68767691      -20.0000000       18263.1523       1.57079542    
  -42.7563400      -3.12513494      -20.0000000       18263.1523       1.57079542    
  -41.2511406      -3.12541890      -20.0000000       18263.1523       1.57079542    
  -44.2565308      -1.56226599      -20.0000000       19802.6094       1.57079554    
  -42.7509499      -1.56253600      -20.0000000       19802.6094       1.57079554    
  -42.7563400      -3.12513494      -20.0000000       19802.6094       1.57079554    
  -44.2611694      -3.12488103      -20.0000000       19802.6094       1.57079554    
  -44.2565308      -1.56226599      -20.0000000       20292.6328       1.57079554    
  -45.7603798      -1.56126106      -20.0000000       20292.6328       1.57079554    
  -45.7582893       0.00000000      -20.0000000       20292.6328       1.57079554    
  -44.2515602       0.00000000      -20.0000000       20292.6328       1.57079554    
  -45.7582893       0.00000000      -20.0000000       19916.6250       1.57079554    
  -47.2657204       0.00000000      -20.0000000       19916.6250       1.57079554    
  -47.2535896       1.55706894      -20.0000000       19916.6250       1.57079554    
  -45.7509003       1.56100297      -20.0000000       19916.6250       1.57079554    
  -47.2535896       1.55706894      -20.0000000       18712.3145       1.57079566    
  -48.7560692       1.53868604      -20.0000000       18712.3145       1.57079566    
  -48.7281189       3.10503101      -20.0000000       18712.3145       1.57079566    
  -47.2370110       3.11982203      -20.0000000       18712.3145       1.57079566    
  -48.7281189       3.10503101      -20.0000000       16577.0840       1.57079554    
  -50.2011604       3.04989505      -20.0000000       16577.0840       1.57079554    
  -50.2067184       4.64797401      -20.0000000       16577.0840       1.57079554    
  -48.7241211       4.67746210      -20.0000000       16577.0840       1.57079554    
  -50.2067184       4.64797401      -20.0000000       12855.5156       1.57079542    
  -51.6648903       4.56408405      -20.0000000       12855.5156       1.57079542    
  -51.7500000       6.25000000      -20.0000000       12855.5156       1.57079542    
  -50.2455711       6.25000000      -20.0000000       12855.5156       1.57079542    
  -38.2494698      -6.25000000      -20.0000000       15071.4277       1.57079518    
  -39.7556496      -6.25000000      -20.0000000       15071.4277       1.57079518    
  -39.7507591      -4.68851089      -20.0000000       15071.4277       1.57079518    
  -38.2446404      -4.68936491      -20.0000000       15071.4277       1.57079518    
  -39.7507591      -4.68851089      -20.0000000       18456.2480       1.57079542    
  -41.2566490      -4.68782711      -20.0000000       18456.2480       1.57079542    
  -41.2511406      -3.12541890      -20.0000000       18456.2480       1.57079542    
  -39.7453995      -3.12673903      -20.0000000       18456.2480       1.57079542    
  -41.2511406      -3.12541890      -20.0000000       20051.5371       1.57079554    
  -42.7563400      -3.12513494      -20.0000000       20051.5371       1.57079554    
  -42.7509499      -1.56253600      -20.0000000       20051.5371       1.57079554    
  -41.2455711      -1.56282198      -20.0000000       20051.5371       1.57079554    
  -44.2515602       0.00000000      -20.0000000       20602.2988       1.57079554    
  -42.7457504       0.00000000      -20.0000000       20602.2988       1.57079554    
  -42.7509499      -1.56253600      -20.0000000       20602.2988       1.57079554    
  -44.2565308      -1.56226599      -20.0000000       20602.2988       1.57079554    
  -44.2515602       0.00000000      -20.0000000       20293.5410       1.57079554    
  -45.7582893       0.00000000      -20.0000000       20293.5410       1.57079554    
  -45.7509003       1.56100297      -20.0000000       20293.5410       1.57079554    
  -44.2452011       1.56199801      -20.0000000       20293.5410       1.57079554    
  -45.7509003       1.56100297      -20.0000000       19149.6289       1.57079554    
  -47.2535896       1.55706894      -20.0000000       19149.6289       1.57079554    
  -47.2370110       3.11982203      -20.0000000       19149.6289       1.57079554    
  -45.7402802       3.12332392      -20.0000000       19149.6289       1.57079554    
  -47.2370110       3.11982203      -20.0000000       17053.8398       1.57079554    
  -48.7281189       3.10503101      -20.0000000       17053.8398       1.57079554    
  -48.7241211       4.67746210      -20.0000000       17053.8398       1.57079554    
  -47.2300911       4.68496799      -20.0000000       17053.8398       1.57079554    
  -48.7241211       4.67746210      -20.0000000       13370.9785       1.57079542    
  -50.2067184       4.64797401      -20.0000000       13370.9785       1.57079542    
  -50.2455711       6.25000000      -20.0000000       13370.9785       1.57079542    
  -48.7411499       6.25000000      -20.0000000       13370.9785       1.57079542    
  -36.7432899      -6.25000000      -20.0000000       15200.1836       1.57079506    
  -38.2494698      -6.25000000      -20.0000000       15200.1836       1.57079506    
  -38.2446404      -4.68936491      -20.0000000       15200.1836       1.57079506    
  -36.7384796      -4.68897390      -20.0000000       15200.1836       1.57079506    
  -38.2446404      -4.68936491      -20.0000000       18625.5586       1.57079542    
  -39.7507591      -4.68851089      -20.0000000       18625.5586       1.57079542    
  -39.7453995      -3.12673903      -20.0000000       18625.5586       1.57079542    
  -38.2396507      -3.12933803      -20.0000000       18625.5586       1.57079542    
  -39.7453995      -3.12673903      -20.0000000       20263.7969       1.57079554    
  -41.2511406      -3.12541890      -20.0000000       20263.7969       1.57079554    
  -41.2455711      -1.56282198      -20.0000000       20263.7969       1.57079554    
  -39.7399902      -1.56351995      -20.0000000       20263.7969       1.57079554    
  -41.2455711      -1.56282198      -20.0000000       20862.6328       1.57079554    
  -42.7509499      -1.56253600      -20.0000000       20862.6328       1.57079554    
  -42.7457504       0.00000000      -20.0000000       20862.6328       1.57079554    
  -41.2401695       0.00000000      -20.0000000       20862.6328       1.57079554    
  -44.2452011       1.56199801      -20.0000000       20602.4160       1.57079554    
  -42.7402611       1.56238496      -20.0000000       20602.4160       1.57079554    
  -42.7457504       0.00000000      -20.0000000       20602.4160       1.57079554    
  -44.2515602       0.00000000      -20.0000000       20602.4160       1.57079554    
  -44.2452011       1.56199801      -20.0000000       19507.4180       1.57079554    
  -45.7509003       1.56100297      -20.0000000       19507.4180       1.57079554    
  -45.7402802       3.12332392      -20.0000000       19507.4180       1.57079554    
  -44.2380295       3.12447906      -20.0000000       19507.4180       1.57079554    
  -45.7402802       3.12332392      -20.0000000       17448.4512       1.57079554    
  -47.2370110       3.11982203      -20.0000000       17448.4512       1.57079554    
  -47.2300911       4.68496799      -20.0000000       17448.4512       1.57079554    
  -45.7329903       4.68700409      -20.0000000       17448.4512       1.57079554    
  -47.2300911       4.68496799      -20.0000000       13774.8906       1.57079530    
  -48.7241211       4.67746210      -20.0000000       13774.8906       1.57079530    
  -48.7411499       6.25000000      -20.0000000       13774.8906       1.57079530    
  -47.2367287       6.25000000      -20.0000000       13774.8906       1.57079530    
  -35.2371101      -6.25000000      -20.0000000       15321.2109       1.57079506    
  -36.7432899      -6.25000000      -20.0000000       15321.2109       1.57079506    
  -36.7384796      -4.68897390      -20.0000000       15321.2109       1.57079506    
  -35.2325211      -4.68835878      -20.0000000       15321.2109       1.57079506    
  -36.7384796      -4.68897390      -20.0000000       18777.7852       1.57079530    
  -38.2446404      -4.68936491      -20.0000000       18777.7852       1.57079530    
  -38.2396507      -3.12933803      -20.0000000       18777.7852       1.57079530    
  -36.7339096      -3.12783909      -20.0000000       18777.7852       1.57079530    
  -38.2396507      -3.12933803      -20.0000000       20449.7969       1.57079542    
  -39.7453995      -3.12673903      -20.0000000       20449.7969       1.57079542    
  -39.7399902      -1.56351995      -20.0000000       20449.7969       1.57079542    
  -38.2346497      -1.56438303      -20.0000000       20449.7969       1.57079542    
  -39.7399902      -1.56351995      -20.0000000       21082.7188       1.57079554    
  -41.2455711      -1.56282198      -20.0000000       21082.7188       1.57079554    
  -41.2401695       0.00000000      -20.0000000       21082.7188       1.57079554    