 VARIABLES="X" "Y" "Z" "abs(p) (Pa)" "angle(p) (rad)"
ZONE N=   3650,E =    3624, F=FEPOINT, ET=QUADRILATERAL
  -56.5164909      -2.47323704      -20.0000000       43.6320305      -3.10241342    
  -55.4176407      -3.26747894      -20.0000000       43.6320305      -3.10241342    
  -55.9264717      -4.64953518      -20.0000000       43.6320305      -3.10241342    
  -56.9148483      -3.51935697      -20.0000000       43.6320305      -3.10241342    
  -56.9148483      -3.51935697      -20.0000000       37.0363045      -2.98785877    
  -57.6058807      -2.18402195      -20.0000000       37.0363045      -2.98785877    
  -56.5164909      -2.47323704      -20.0000000       37.0363045      -2.98785877    
  -56.5164909      -2.47323704      -20.0000000       37.0363045      -2.98785877    
  -54.6953812      -5.51239681      -20.0000000       48.3429718       3.11066079    
  -55.9264717      -4.64953518      -20.0000000       48.3429718       3.11066079    
  -55.4176407      -3.26747894      -20.0000000       48.3429718       3.11066079    
  -54.2450790      -3.94889998      -20.0000000       48.3429718       3.11066079    
  -54.2450790      -3.94889998      -20.0000000       52.5641403       3.06240368    
  -52.9834785      -4.46340179      -20.0000000       52.5641403       3.06240368    
  -53.2955093      -6.05576801      -20.0000000       52.5641403       3.06240368    
  -54.6953812      -5.51239681      -20.0000000       52.5641403       3.06240368    
  -56.5223999      -1.11500299      -20.0000000       41.0979347      -3.03600526    
  -56.5164909      -2.47323704      -20.0000000       41.0979347      -3.03600526    
  -57.6058807      -2.18402195      -20.0000000       41.0979347      -3.03600526    
  -57.9577713     -0.724482894      -20.0000000       41.0979347      -3.03600526    
  -56.5164909      -2.47323704      -20.0000000       55.7051964       3.11874771    
  -56.5223999      -1.11500299      -20.0000000       55.7051964       3.11874771    
  -55.1657600      -1.76926601      -20.0000000       55.7051964       3.11874771    
  -55.4176407      -3.26747894      -20.0000000       55.7051964       3.11874771    
  -54.2450790      -3.94889998      -20.0000000       62.6985245       3.03543544    
  -55.4176407      -3.26747894      -20.0000000       62.6985245       3.03543544    
  -55.1657600      -1.76926601      -20.0000000       62.6985245       3.03543544    
  -53.8819199      -2.32836604      -20.0000000       62.6985245       3.03543544    
  -52.9834785      -4.46340179      -20.0000000       57.4138260       3.02316284    
  -51.6155815      -4.69134283      -20.0000000       57.4138260       3.02316284    
  -51.8049088      -6.24783087      -20.0000000       57.4138260       3.02316284    
  -53.2955093      -6.05576801      -20.0000000       57.4138260       3.02316284    
  -56.3964119      0.254809886      -20.0000000       44.1316795      -2.96481276    
  -56.5223999      -1.11500299      -20.0000000       44.1316795      -2.96481276    
  -57.9577713     -0.724482894      -20.0000000       44.1316795      -2.96481276    
  -57.9511719      0.779103875      -20.0000000       44.1316795      -2.96481276    
  -53.8819199      -2.32836604      -20.0000000       66.8681183       2.97569537    
  -52.7235603      -2.92538095      -20.0000000       66.8681183       2.97569537    
  -52.9834785      -4.46340179      -20.0000000       66.8681183       2.97569537    
  -54.2450790      -3.94889998      -20.0000000       66.8681183       2.97569537    
  -56.5223999      -1.11500299      -20.0000000       62.8278008      -3.05568099    
  -56.3964119      0.254809886      -20.0000000       62.8278008      -3.05568099    
  -54.8835487     -0.325594515      -20.0000000       62.8278008      -3.05568099    
  -55.1657600      -1.76926601      -20.0000000       62.8278008      -3.05568099    
  -50.2990494      -6.25000000      -20.0000000       62.9879227       2.98371315    
  -51.8049088      -6.24783087      -20.0000000       62.9879227       2.98371315    
  -51.6155815      -4.69134283      -20.0000000       62.9879227       2.98371315    
  -50.1911316      -4.70199823      -20.0000000       62.9879227       2.98371315    
  -53.8819199      -2.32836604      -20.0000000       73.1057968      -3.12949824    
  -55.1657600      -1.76926601      -20.0000000       73.1057968      -3.12949824    
  -54.8835487     -0.325594515      -20.0000000       73.1057968      -3.12949824    
  -53.3087082     -0.726661325      -20.0000000       73.1057968      -3.12949824    
  -52.7235603      -2.92538095      -20.0000000       70.7345352       2.93661833    
  -51.4683685      -3.18431592      -20.0000000       70.7345352       2.93661833    
  -51.6155815      -4.69134283      -20.0000000       70.7345352       2.93661833    
  -52.9834785      -4.46340179      -20.0000000       70.7345352       2.93661833    
  -56.1067696       1.60355306      -20.0000000       47.2267532      -2.83235121    
  -56.3964119      0.254809886      -20.0000000       47.2267532      -2.83235121    
  -57.9511719      0.779103875      -20.0000000       47.2267532      -2.83235121    
  -57.5863686       2.23558092      -20.0000000       47.2267532      -2.83235121    
  -56.3964119      0.254809886      -20.0000000       67.0488739      -2.90238714    
  -56.1067696       1.60355306      -20.0000000       67.0488739      -2.90238714    
  -54.6488190       1.11988902      -20.0000000       67.0488739      -2.90238714    
  -54.8835487     -0.325594515      -20.0000000       67.0488739      -2.90238714    
  -51.8859215      -1.67511594      -20.0000000       78.9163971       3.08053517    
  -52.7235603      -2.92538095      -20.0000000       78.9163971       3.08053517    
  -53.8819199      -2.32836604      -20.0000000       78.9163971       3.08053517    
  -53.3087082     -0.726661325      -20.0000000       78.9163971       3.08053517    
  -48.7928200      -6.25000000      -20.0000000       68.2719269       2.94663072    
  -50.2990494      -6.25000000      -20.0000000       68.2719269       2.94663072    
  -50.1911316      -4.70199823      -20.0000000       68.2719269       2.94663072    
  -48.7387619      -4.69004917      -20.0000000       68.2719269       2.94663072    
  -50.1911316      -4.70199823      -20.0000000       75.8242722       2.91547942    
  -51.6155815      -4.69134283      -20.0000000       75.8242722       2.91547942    
  -51.4683685      -3.18431592      -20.0000000       75.8242722       2.91547942    
  -50.1564102      -3.12996602      -20.0000000       75.8242722       2.91547942    
  -54.6488190       1.11988902      -20.0000000       78.7901688      -2.95976090    
  -53.2043991       1.01675200      -20.0000000       78.7901688      -2.95976090    
  -53.3087082     -0.726661325      -20.0000000       78.7901688      -2.95976090    
  -54.8835487     -0.325594515      -20.0000000       78.7901688      -2.95976090    
  -51.4683685      -3.18431592      -20.0000000       79.8527222       3.00877953    
  -52.7235603      -2.92538095      -20.0000000       79.8527222       3.00877953    
  -51.8859215      -1.67511594      -20.0000000       79.8527222       3.00877953    
  -51.8859215      -1.67511594      -20.0000000       79.8527222       3.00877953    
  -55.6295395       2.91055298      -20.0000000       51.1310081      -2.67169023    
  -56.1067696       1.60355306      -20.0000000       51.1310081      -2.67169023    
  -57.5863686       2.23558092      -20.0000000       51.1310081      -2.67169023    
  -56.8836594       3.56473303      -20.0000000       51.1310081      -2.67169023    
  -47.2866096      -6.25000000      -20.0000000       72.8264236       2.91199541    
  -48.7928200      -6.25000000      -20.0000000       72.8264236       2.91199541    
  -48.7387619      -4.69004917      -20.0000000       72.8264236       2.91199541    
  -47.2626686      -4.68801212      -20.0000000       72.8264236       2.91199541    
  -48.7387619      -4.69004917      -20.0000000       81.1678085       2.90225291    
  -50.1911316      -4.70199823      -20.0000000       81.1678085       2.90225291    
  -50.1564102      -3.12996602      -20.0000000       81.1678085       2.90225291    
  -48.7254105      -3.12169194      -20.0000000       81.1678085       2.90225291    
  -50.1564102      -3.12996602      -20.0000000       85.8128815       3.01878381    
  -51.4683685      -3.18431592      -20.0000000       85.8128815       3.01878381    
  -51.8859215      -1.67511594      -20.0000000       85.8128815       3.01878381    
  -50.2854195      -1.59545600      -20.0000000       85.8128815       3.01878381    
  -54.6488190       1.11988902      -20.0000000       69.3601837      -2.73101807    
  -56.1067696       1.60355306      -20.0000000       69.3601837      -2.73101807    
  -55.6295395       2.91055298      -20.0000000       69.3601837      -2.73101807    
  -54.3531990       2.57653904      -20.0000000       69.3601837      -2.73101807    
  -51.7686501     -0.191007897      -20.0000000       85.9893265      -3.10154915    
  -51.8859215      -1.67511594      -20.0000000       85.9893265      -3.10154915    
  -53.3087082     -0.726661325      -20.0000000       85.9893265      -3.10154915    
  -53.3087082     -0.726661325      -20.0000000       85.9893265      -3.10154915    
  -51.7686501     -0.191007897      -20.0000000       87.5310287      -2.96082783    
  -53.3087082     -0.726661325      -20.0000000       87.5310287      -2.96082783    
  -53.2043991       1.01675200      -20.0000000       87.5310287      -2.96082783    
  -51.7500000       1.29565406      -20.0000000       87.5310287      -2.96082783    
  -53.0367393       2.70281792      -20.0000000       80.4524460      -2.76361442    
  -53.2043991       1.01675200      -20.0000000       80.4524460      -2.76361442    
  -54.6488190       1.11988902      -20.0000000       80.4524460      -2.76361442    
  -54.3531990       2.57653904      -20.0000000       80.4524460      -2.76361442    
  -45.7804108      -6.25000000      -20.0000000       77.0085907       2.87832785    
  -47.2866096      -6.25000000      -20.0000000       77.0085907       2.87832785    
  -47.2626686      -4.68801212      -20.0000000       77.0085907       2.87832785    
  -45.7679100      -4.68779421      -20.0000000       77.0085907       2.87832785    
  -47.2626686      -4.68801212      -20.0000000       85.8515396       2.88836503    
  -48.7387619      -4.69004917      -20.0000000       85.8515396       2.88836503    
  -48.7254105      -3.12169194      -20.0000000       85.8515396       2.88836503    
  -47.2550507      -3.12222195      -20.0000000       85.8515396       2.88836503    
  -54.5736809       4.04919481      -20.0000000       58.4298210      -2.51374364    
  -55.6295395       2.91055298      -20.0000000       58.4298210      -2.51374364    
  -56.8836594       3.56473303      -20.0000000       58.4298210      -2.51374364    
  -55.8850899       4.68635893      -20.0000000       58.4298210      -2.51374364    
  -48.7254105      -3.12169194      -20.0000000       91.3861160       3.00982809    
  -50.1564102      -3.12996602      -20.0000000       91.3861160       3.00982809    
  -50.2854195      -1.59545600      -20.0000000       91.3861160       3.00982809    
  -48.7658615      -1.56390297      -20.0000000       91.3861160       3.00982809    
  -50.2854195      -1.59545600      -20.0000000       91.6616058      -3.11557078    
  -51.8859215      -1.67511594      -20.0000000       91.6616058      -3.11557078    
  -51.7686501     -0.191007897      -20.0000000       91.6616058      -3.11557078    
  -50.2816200      -7.23225027E-02  -20.0000000       91.6616058      -3.11557078    
  -55.6295395       2.91055298      -20.0000000       70.2706375      -2.58517957    
  -54.5736809       4.04919481      -20.0000000       70.2706375      -2.58517957    
  -54.3531990       2.57653904      -20.0000000       70.2706375      -2.58517957    
  -54.3531990       2.57653904      -20.0000000       70.2706375      -2.58517957    
  -51.6464691       2.90894699      -20.0000000       88.4967575      -2.76081944    
  -51.7500000       1.29565406      -20.0000000       88.4967575      -2.76081944    
  -53.2043991       1.01675200      -20.0000000       88.4967575      -2.76081944    
  -53.0367393       2.70281792      -20.0000000       88.4967575      -2.76081944    
  -44.2742119      -6.25000000      -20.0000000       81.2546463       2.84825587    
  -45.7804108      -6.25000000      -20.0000000       81.2546463       2.84825587    
  -45.7679100      -4.68779421      -20.0000000       81.2546463       2.84825587    
  -44.2670212      -4.68766403      -20.0000000       81.2546463       2.84825587    
  -45.7679100      -4.68779421      -20.0000000       90.0825119       2.87384844    
  -47.2626686      -4.68801212      -20.0000000       90.0825119       2.87384844    
  -47.2550507      -3.12222195      -20.0000000       90.0825119       2.87384844    
  -45.7611885      -3.12411094      -20.0000000       90.0825119       2.87384844    
  -51.7500000       1.29565406      -20.0000000       94.8014221      -2.94163561    
  -50.2459984       1.47492099      -20.0000000       94.8014221      -2.94163561    
  -50.2816200      -7.23225027E-02  -20.0000000       94.8014221      -2.94163561    
  -51.7686501     -0.191007897      -20.0000000       94.8014221      -2.94163561    
  -47.2550507      -3.12222195      -20.0000000       96.0963516       2.99810791    
  -48.7254105      -3.12169194      -20.0000000       96.0963516       2.99810791    
  -48.7658615      -1.56390297      -20.0000000       96.0963516       2.99810791    
  -47.2643318      -1.55986798      -20.0000000       96.0963516       2.99810791    
  -48.7658615      -1.56390297      -20.0000000       97.5664215      -3.12061524    
  -50.2854195      -1.59545600      -20.0000000       97.5664215      -3.12061524    
  -50.2816200      -7.23225027E-02  -20.0000000       97.5664215      -3.12061524    
  -48.7753716      -1.42937005E-02  -20.0000000       97.5664215      -3.12061524    
  -54.5736809       4.04919481      -20.0000000       78.4175949      -2.56151652    
  -53.0954399       4.36336088      -20.0000000       78.4175949      -2.56151652    
  -53.0367393       2.70281792      -20.0000000       78.4175949      -2.56151652    
  -54.3531990       2.57653904      -20.0000000       78.4175949      -2.56151652    
  -54.6465797       5.53822613      -20.0000000       63.5387344      -2.40922046    
  -54.5736809       4.04919481      -20.0000000       63.5387344      -2.40922046    
  -55.8850899       4.68635893      -20.0000000       63.5387344      -2.40922046    
  -55.8850899       4.68635893      -20.0000000       63.5387344      -2.40922046    
  -44.2670212      -4.68766403      -20.0000000       85.6964264       2.82583380    
  -42.7620697      -4.68767691      -20.0000000       85.6964264       2.82583380    
  -42.7680206      -6.25000000      -20.0000000       85.6964264       2.82583380    
  -44.2742119      -6.25000000      -20.0000000       85.6964264       2.82583380    
  -44.2670212      -4.68766403      -20.0000000       94.1390991       2.86043692    
  -45.7679100      -4.68779421      -20.0000000       94.1390991       2.86043692    
  -45.7611885      -3.12411094      -20.0000000       94.1390991       2.86043692    
  -44.2611694      -3.12488103      -20.0000000       94.1390991       2.86043692    
  -45.7611885      -3.12411094      -20.0000000       100.256058       2.98547244    
  -47.2550507      -3.12222195      -20.0000000       100.256058       2.98547244    
  -47.2643318      -1.55986798      -20.0000000       100.256058       2.98547244    
  -45.7603798      -1.56126106      -20.0000000       100.256058       2.98547244    
  -50.2459984       1.47492099      -20.0000000       94.9345551      -2.75676060    
  -51.7500000       1.29565406      -20.0000000       94.9345551      -2.75676060    
  -51.6464691       2.90894699      -20.0000000       94.9345551      -2.75676060    
  -50.2011604       3.04989505      -20.0000000       94.9345551      -2.75676060    
  -54.6465797       5.53822613      -20.0000000       74.3343811      -2.38811755    
  -53.2416306       6.06926107      -20.0000000       74.3343811      -2.38811755    
  -53.0954399       4.36336088      -20.0000000       74.3343811      -2.38811755    
  -54.5736809       4.04919481      -20.0000000       74.3343811      -2.38811755    
  -47.2643318      -1.55986798      -20.0000000       102.330170      -3.13279796    
  -48.7658615      -1.56390297      -20.0000000       102.330170      -3.13279796    
  -48.7753716      -1.42937005E-02  -20.0000000       102.330170      -3.13279796    
  -47.2657204       0.00000000      -20.0000000       102.330170      -3.13279796    
  -48.7753716      -1.42937005E-02  -20.0000000       100.330612      -2.94818330    
  -50.2816200      -7.23225027E-02  -20.0000000       100.330612      -2.94818330    
  -50.2459984       1.47492099      -20.0000000       100.330612      -2.94818330    
  -48.7560692       1.53868604      -20.0000000       100.330612      -2.94818330    
  -51.6464691       2.90894699      -20.0000000       86.5894165      -2.55844450    
  -53.0367393       2.70281792      -20.0000000       86.5894165      -2.55844450    
  -53.0954399       4.36336088      -20.0000000       86.5894165      -2.55844450    
  -51.6648903       4.56408405      -20.0000000       86.5894165      -2.55844450    
  -41.2618294      -6.25000000      -20.0000000       90.3814621       2.81431746    
  -42.7680206      -6.25000000      -20.0000000       90.3814621       2.81431746    
  -42.7620697      -4.68767691      -20.0000000       90.3814621       2.81431746    
  -41.2566490      -4.68782711      -20.0000000       90.3814621       2.81431746    
  -44.2611694      -3.12488103      -20.0000000       98.1419220       2.85032487    
  -42.7563400      -3.12513494      -20.0000000       98.1419220       2.85032487    
  -42.7620697      -4.68767691      -20.0000000       98.1419220       2.85032487    
  -44.2670212      -4.68766403      -20.0000000       98.1419220       2.85032487    
  -44.2611694      -3.12488103      -20.0000000       104.130226       2.97324586    
  -45.7611885      -3.12411094      -20.0000000       104.130226       2.97324586    
  -45.7603798      -1.56126106      -20.0000000       104.130226       2.97324586    
  -44.2565308      -1.56226599      -20.0000000       104.130226       2.97324586    
  -45.7603798      -1.56126106      -20.0000000       106.397980       3.13468575    
  -47.2643318      -1.55986798      -20.0000000       106.397980       3.13468575    
  -47.2657204       0.00000000      -20.0000000       106.397980       3.13468575    
  -45.7582893       0.00000000      -20.0000000       106.397980       3.13468575    
  -47.2657204       0.00000000      -20.0000000       104.809189      -2.96494460    
  -48.7753716      -1.42937005E-02  -20.0000000       104.809189      -2.96494460    
  -48.7560692       1.53868604      -20.0000000       104.809189      -2.96494460    
  -47.2535896       1.55706894      -20.0000000       104.809189      -2.96494460    
  -48.7560692       1.53868604      -20.0000000       100.002266      -2.76963663    
  -50.2459984       1.47492099      -20.0000000       100.002266      -2.76963663    
  -50.2011604       3.04989505      -20.0000000       100.002266      -2.76963663    
  -48.7281189       3.10503101      -20.0000000       100.002266      -2.76963663    
  -50.2011604       3.04989505      -20.0000000       92.7760086      -2.57057905    
  -51.6464691       2.90894699      -20.0000000       92.7760086      -2.57057905    
  -51.6648903       4.56408405      -20.0000000       92.7760086      -2.57057905    
  -50.2067184       4.64797401      -20.0000000       92.7760086      -2.57057905    
  -51.6648903       4.56408405      -20.0000000       84.0100174      -2.38699818    
  -53.0954399       4.36336088      -20.0000000       84.0100174      -2.38699818    
  -53.2416306       6.06926107      -20.0000000       84.0100174      -2.38699818    
  -51.7500000       6.25000000      -20.0000000       84.0100174      -2.38699818    
  -39.7556496      -6.25000000      -20.0000000       95.2259903       2.81521058    
  -41.2618294      -6.25000000      -20.0000000       95.2259903       2.81521058    
  -41.2566490      -4.68782711      -20.0000000       95.2259903       2.81521058    
  -39.7507591      -4.68851089      -20.0000000       95.2259903       2.81521058    
  -41.2566490      -4.68782711      -20.0000000       102.121307       2.84521914    
  -42.7620697      -4.68767691      -20.0000000       102.121307       2.84521914    
  -42.7563400      -3.12513494      -20.0000000       102.121307       2.84521914    
  -41.2511406      -3.12541890      -20.0000000       102.121307       2.84521914    
  -44.2565308      -1.56226599      -20.0000000       107.811386       2.96303749    
  -42.7509499      -1.56253600      -20.0000000       107.811386       2.96303749    
  -42.7563400      -3.12513494      -20.0000000       107.811386       2.96303749    
  -44.2611694      -3.12488103      -20.0000000       107.811386       2.96303749    
  -44.2565308      -1.56226599      -20.0000000       110.058922       3.11896110    
  -45.7603798      -1.56126106      -20.0000000       110.058922       3.11896110    
  -45.7582893       0.00000000      -20.0000000       110.058922       3.11896110    
  -44.2515602       0.00000000      -20.0000000       110.058922       3.11896110    
  -45.7582893       0.00000000      -20.0000000       108.577522      -2.98645043    
  -47.2657204       0.00000000      -20.0000000       108.577522      -2.98645043    
  -47.2535896       1.55706894      -20.0000000       108.577522      -2.98645043    
  -45.7509003       1.56100297      -20.0000000       108.577522      -2.98645043    
  -47.2535896       1.55706894      -20.0000000       103.946152      -2.79537153    
  -48.7560692       1.53868604      -20.0000000       103.946152      -2.79537153    
  -48.7281189       3.10503101      -20.0000000       103.946152      -2.79537153    
  -47.2370110       3.11982203      -20.0000000       103.946152      -2.79537153    
  -48.7281189       3.10503101      -20.0000000       97.3642197      -2.59992719    
  -50.2011604       3.04989505      -20.0000000       97.3642197      -2.59992719    
  -50.2067184       4.64797401      -20.0000000       97.3642197      -2.59992719    
  -48.7241211       4.67746210      -20.0000000       97.3642197      -2.59992719    
  -50.2067184       4.64797401      -20.0000000       91.0227356      -2.42108226    
  -51.6648903       4.56408405      -20.0000000       91.0227356      -2.42108226    
  -51.7500000       6.25000000      -20.0000000       91.0227356      -2.42108226    
  -50.2455711       6.25000000      -20.0000000       91.0227356      -2.42108226    
  -38.2494698      -6.25000000      -20.0000000       100.051888       2.82803679    
  -39.7556496      -6.25000000      -20.0000000       100.051888       2.82803679    
  -39.7507591      -4.68851089      -20.0000000       100.051888       2.82803679    
  -38.2446404      -4.68936491      -20.0000000       100.051888       2.82803679    
  -39.7507591      -4.68851089      -20.0000000       106.042320       2.84598422    
  -41.2566490      -4.68782711      -20.0000000       106.042320       2.84598422    
  -41.2511406      -3.12541890      -20.0000000       106.042320       2.84598422    
  -39.7453995      -3.12673903      -20.0000000       106.042320       2.84598422    
  -41.2511406      -3.12541890      -20.0000000       111.424019       2.95608854    
  -42.7563400      -3.12513494      -20.0000000       111.424019       2.95608854    
  -42.7509499      -1.56253600      -20.0000000       111.424019       2.95608854    
  -41.2455711      -1.56282198      -20.0000000       111.424019       2.95608854    
  -44.2515602       0.00000000      -20.0000000       113.490898       3.10490870    
  -42.7457504       0.00000000      -20.0000000       113.490898       3.10490870    
  -42.7509499      -1.56253600      -20.0000000       113.490898       3.10490870    
  -44.2565308      -1.56226599      -20.0000000       113.490898       3.10490870    
  -44.2515602       0.00000000      -20.0000000       111.887573      -3.00866580    
  -45.7582893       0.00000000      -20.0000000       111.887573      -3.00866580    
  -45.7509003       1.56100297      -20.0000000       111.887573      -3.00866580    
  -44.2452011       1.56199801      -20.0000000       111.887573      -3.00866580    
  -45.7509003       1.56100297      -20.0000000       107.121887      -2.82655096    
  -47.2535896       1.55706894      -20.0000000       107.121887      -2.82655096    
  -47.2370110       3.11982203      -20.0000000       107.121887      -2.82655096    
  -45.7402802       3.12332392      -20.0000000       107.121887      -2.82655096    
  -47.2370110       3.11982203      -20.0000000       100.556274      -2.64085674    
  -48.7281189       3.10503101      -20.0000000       100.556274      -2.64085674    
  -48.7241211       4.67746210      -20.0000000       100.556274      -2.64085674    
  -47.2300911       4.68496799      -20.0000000       100.556274      -2.64085674    
  -48.7241211       4.67746210      -20.0000000       95.3840027      -2.47473884    
  -50.2067184       4.64797401      -20.0000000       95.3840027      -2.47473884    
  -50.2455711       6.25000000      -20.0000000       95.3840027      -2.47473884    
  -48.7411499       6.25000000      -20.0000000       95.3840027      -2.47473884    
  -36.7432899      -6.25000000      -20.0000000       104.634323       2.85103512    
  -38.2494698      -6.25000000      -20.0000000       104.634323       2.85103512    
  -38.2446404      -4.68936491      -20.0000000       104.634323       2.85103512    
  -36.7384796      -4.68897390      -20.0000000       104.634323       2.85103512    
  -38.2446404      -4.68936491      -20.0000000       109.862617       2.85283065    
  -39.7507591      -4.68851089      -20.0000000       109.862617       2.85283065    
  -39.7453995      -3.12673903      -20.0000000       109.862617       2.85283065    
  -38.2396507      -3.12933803      -20.0000000       109.862617       2.85283065    
  -39.7453995      -3.12673903      -20.0000000       114.892029       2.95284939    
  -41.2511406      -3.12541890      -20.0000000       114.892029       2.95284939    
  -41.2455711      -1.56282198      -20.0000000       114.892029       2.95284939    
  -39.7399902      -1.56351995      -20.0000000       114.892029       2.95284939    
  -41.2455711      -1.56282198      -20.0000000       116.793465       3.09364820    
  -42.7509499      -1.56253600      -20.0000000       116.793465       3.09364820    
  -42.7457504       0.00000000      -20.0000000       116.793465       3.09364820    
  -41.2401695       0.00000000      -20.0000000       116.793465       3.09364820    
  -44.2452011       1.56199801      -20.0000000       114.933525      -3.02925992    
  -42.7402611       1.56238496      -20.0000000       114.933525      -3.02925992    
  -42.7457504       0.00000000      -20.0000000       114.933525      -3.02925992    
  -44.2515602       0.00000000      -20.0000000       114.933525      -3.02925992    
  -44.2452011       1.56199801      -20.0000000       109.782951      -2.85880804    
  -45.7509003       1.56100297      -20.0000000       109.782951      -2.85880804    
  -45.7402802       3.12332392      -20.0000000       109.782951      -2.85880804    
  -44.2380295       3.12447906      -20.0000000       109.782951      -2.85880804    
  -45.7402802       3.12332392      -20.0000000       102.763229      -2.68734050    
  -47.2370110       3.11982203      -20.0000000       102.763229      -2.68734050    
  -47.2300911       4.68496799      -20.0000000       102.763229      -2.68734050    
  -45.7329903       4.68700409      -20.0000000       102.763229      -2.68734050    
  -47.2300911       4.68496799      -20.0000000       97.4490662      -2.53914404    
  -48.7241211       4.67746210      -20.0000000       97.4490662      -2.53914404    
  -48.7411499       6.25000000      -20.0000000       97.4490662      -2.53914404    
  -47.2367287       6.25000000      -20.0000000       97.4490662      -2.53914404    
  -35.2371101      -6.25000000      -20.0000000       108.845551       2.88107586    
  -36.7432899      -6.25000000      -20.0000000       108.845551       2.88107586    
  -36.7384796      -4.68897390      -20.0000000       108.845551       2.88107586    
  -35.2325211      -4.68835878      -20.0000000       108.845551       2.88107586    
  -36.7384796      -4.68897390      -20.0000000       113.403366       2.86510181    
  -38.2446404      -4.68936491      -20.0000000       113.403366       2.86510181    
  -38.2396507      -3.12933803      -20.0000000       113.403366       2.86510181    
  -36.7339096      -3.12783909      -20.0000000       113.403366       2.86510181    
  -38.2396507      -3.12933803      -20.0000000       118.249290       2.95381784    
  -39.7453995      -3.12673903      -20.0000000       118.249290       2.95381784    
  -39.7399902      -1.56351995      -20.0000000       118.249290       2.95381784    
  -38.2346497      -1.56438303      -20.0000000       118.249290       2.95381784    
  -39.7399902      -1.56351995      -20.0000000       119.916313       3.08558679    
  -41.2455711      -1.56282198      -20.0000000       119.916313       3.08558679    
  -41.2401695       0.00000000      -20.0000000       119.916313       3.08558679    