 VARIABLES="X" "Y" "Z" "abs(p) (Pa)" "angle(p) (rad)"
ZONE N=   3650,E =    3624, F=FEPOINT, ET=QUADRILATERAL
  -56.5164909      -2.47323704      -20.0000000       179040.328       1.61644006    
  -55.4176407      -3.26747894      -20.0000000       179040.328       1.61644006    
  -55.9264717      -4.64953518      -20.0000000       179040.328       1.61644006    
  -56.9148483      -3.51935697      -20.0000000       179040.328       1.61644006    
  -56.9148483      -3.51935697      -20.0000000       156436.344       1.62658823    
  -57.6058807      -2.18402195      -20.0000000       156436.344       1.62658823    
  -56.5164909      -2.47323704      -20.0000000       156436.344       1.62658823    
  -56.5164909      -2.47323704      -20.0000000       156436.344       1.62658823    
  -54.6953812      -5.51239681      -20.0000000       191813.906       1.61047161    
  -55.9264717      -4.64953518      -20.0000000       191813.906       1.61047161    
  -55.4176407      -3.26747894      -20.0000000       191813.906       1.61047161    
  -54.2450790      -3.94889998      -20.0000000       191813.906       1.61047161    
  -54.2450790      -3.94889998      -20.0000000       200602.938       1.60537648    
  -52.9834785      -4.46340179      -20.0000000       200602.938       1.60537648    
  -53.2955093      -6.05576801      -20.0000000       200602.938       1.60537648    
  -54.6953812      -5.51239681      -20.0000000       200602.938       1.60537648    
  -56.5223999      -1.11500299      -20.0000000       175663.250       1.61907816    
  -56.5164909      -2.47323704      -20.0000000       175663.250       1.61907816    
  -57.6058807      -2.18402195      -20.0000000       175663.250       1.61907816    
  -57.9577713     -0.724482894      -20.0000000       175663.250       1.61907816    
  -56.5164909      -2.47323704      -20.0000000       225862.219       1.60376155    
  -56.5223999      -1.11500299      -20.0000000       225862.219       1.60376155    
  -55.1657600      -1.76926601      -20.0000000       225862.219       1.60376155    
  -55.4176407      -3.26747894      -20.0000000       225862.219       1.60376155    
  -54.2450790      -3.94889998      -20.0000000       248677.984       1.59790933    
  -55.4176407      -3.26747894      -20.0000000       248677.984       1.59790933    
  -55.1657600      -1.76926601      -20.0000000       248677.984       1.59790933    
  -53.8819199      -2.32836604      -20.0000000       248677.984       1.59790933    
  -52.9834785      -4.46340179      -20.0000000       209089.734       1.59992850    
  -51.6155815      -4.69134283      -20.0000000       209089.734       1.59992850    
  -51.8049088      -6.24783087      -20.0000000       209089.734       1.59992850    
  -53.2955093      -6.05576801      -20.0000000       209089.734       1.59992850    
  -56.3964119      0.254809886      -20.0000000       184216.484       1.61623406    
  -56.5223999      -1.11500299      -20.0000000       184216.484       1.61623406    
  -57.9577713     -0.724482894      -20.0000000       184216.484       1.61623406    
  -57.9511719      0.779103875      -20.0000000       184216.484       1.61623406    
  -53.8819199      -2.32836604      -20.0000000       260186.719       1.59430814    
  -52.7235603      -2.92538095      -20.0000000       260186.719       1.59430814    
  -52.9834785      -4.46340179      -20.0000000       260186.719       1.59430814    
  -54.2450790      -3.94889998      -20.0000000       260186.719       1.59430814    
  -56.5223999      -1.11500299      -20.0000000       245146.203       1.59994304    
  -56.3964119      0.254809886      -20.0000000       245146.203       1.59994304    
  -54.8835487     -0.325594515      -20.0000000       245146.203       1.59994304    
  -55.1657600      -1.76926601      -20.0000000       245146.203       1.59994304    
  -50.2990494      -6.25000000      -20.0000000       218586.250       1.59414577    
  -51.8049088      -6.24783087      -20.0000000       218586.250       1.59414577    
  -51.6155815      -4.69134283      -20.0000000       218586.250       1.59414577    
  -50.1911316      -4.70199823      -20.0000000       218586.250       1.59414577    
  -53.8819199      -2.32836604      -20.0000000       276698.469       1.59345341    
  -55.1657600      -1.76926601      -20.0000000       276698.469       1.59345341    
  -54.8835487     -0.325594515      -20.0000000       276698.469       1.59345341    
  -53.3087082     -0.726661325      -20.0000000       276698.469       1.59345341    
  -52.7235603      -2.92538095      -20.0000000       267884.000       1.59108138    
  -51.4683685      -3.18431592      -20.0000000       267884.000       1.59108138    
  -51.6155815      -4.69134283      -20.0000000       267884.000       1.59108138    
  -52.9834785      -4.46340179      -20.0000000       267884.000       1.59108138    
  -56.1067696       1.60355306      -20.0000000       187484.047       1.61494827    
  -56.3964119      0.254809886      -20.0000000       187484.047       1.61494827    
  -57.9511719      0.779103875      -20.0000000       187484.047       1.61494827    
  -57.5863686       2.23558092      -20.0000000       187484.047       1.61494827    
  -56.3964119      0.254809886      -20.0000000       251892.359       1.59853232    
  -56.1067696       1.60355306      -20.0000000       251892.359       1.59853232    
  -54.6488190       1.11988902      -20.0000000       251892.359       1.59853232    
  -54.8835487     -0.325594515      -20.0000000       251892.359       1.59853232    
  -51.8859215      -1.67511594      -20.0000000       292555.031       1.58978009    
  -52.7235603      -2.92538095      -20.0000000       292555.031       1.58978009    
  -53.8819199      -2.32836604      -20.0000000       292555.031       1.58978009    
  -53.3087082     -0.726661325      -20.0000000       292555.031       1.58978009    
  -48.7928200      -6.25000000      -20.0000000       226044.734       1.58877206    
  -50.2990494      -6.25000000      -20.0000000       226044.734       1.58877206    
  -50.1911316      -4.70199823      -20.0000000       226044.734       1.58877206    
  -48.7387619      -4.69004917      -20.0000000       226044.734       1.58877206    
  -50.1911316      -4.70199823      -20.0000000       276584.000       1.58757663    
  -51.6155815      -4.69134283      -20.0000000       276584.000       1.58757663    
  -51.4683685      -3.18431592      -20.0000000       276584.000       1.58757663    
  -50.1564102      -3.12996602      -20.0000000       276584.000       1.58757663    
  -54.6488190       1.11988902      -20.0000000       286527.969       1.59189022    
  -53.2043991       1.01675200      -20.0000000       286527.969       1.59189022    
  -53.3087082     -0.726661325      -20.0000000       286527.969       1.59189022    
  -54.8835487     -0.325594515      -20.0000000       286527.969       1.59189022    
  -51.4683685      -3.18431592      -20.0000000       293822.688       1.58822918    
  -52.7235603      -2.92538095      -20.0000000       293822.688       1.58822918    
  -51.8859215      -1.67511594      -20.0000000       293822.688       1.58822918    
  -51.8859215      -1.67511594      -20.0000000       293822.688       1.58822918    
  -55.6295395       2.91055298      -20.0000000       186481.188       1.61462367    
  -56.1067696       1.60355306      -20.0000000       186481.188       1.61462367    
  -57.5863686       2.23558092      -20.0000000       186481.188       1.61462367    
  -56.8836594       3.56473303      -20.0000000       186481.188       1.61462367    
  -47.2866096      -6.25000000      -20.0000000       229782.781       1.58383441    
  -48.7928200      -6.25000000      -20.0000000       229782.781       1.58383441    
  -48.7387619      -4.69004917      -20.0000000       229782.781       1.58383441    
  -47.2626686      -4.68801212      -20.0000000       229782.781       1.58383441    
  -48.7387619      -4.69004917      -20.0000000       283899.969       1.58415759    
  -50.1911316      -4.70199823      -20.0000000       283899.969       1.58415759    
  -50.1564102      -3.12996602      -20.0000000       283899.969       1.58415759    
  -48.7254105      -3.12169194      -20.0000000       283899.969       1.58415759    
  -50.1564102      -3.12996602      -20.0000000       305559.438       1.58552241    
  -51.4683685      -3.18431592      -20.0000000       305559.438       1.58552241    
  -51.8859215      -1.67511594      -20.0000000       305559.438       1.58552241    
  -50.2854195      -1.59545600      -20.0000000       305559.438       1.58552241    
  -54.6488190       1.11988902      -20.0000000       248343.016       1.59866393    
  -56.1067696       1.60355306      -20.0000000       248343.016       1.59866393    
  -55.6295395       2.91055298      -20.0000000       248343.016       1.59866393    
  -54.3531990       2.57653904      -20.0000000       248343.016       1.59866393    
  -51.7686501     -0.191007897      -20.0000000       307437.219       1.58751822    
  -51.8859215      -1.67511594      -20.0000000       307437.219       1.58751822    
  -53.3087082     -0.726661325      -20.0000000       307437.219       1.58751822    
  -53.3087082     -0.726661325      -20.0000000       307437.219       1.58751822    
  -51.7686501     -0.191007897      -20.0000000       306908.250       1.58784139    
  -53.3087082     -0.726661325      -20.0000000       306908.250       1.58784139    
  -53.2043991       1.01675200      -20.0000000       306908.250       1.58784139    
  -51.7500000       1.29565406      -20.0000000       306908.250       1.58784139    
  -53.0367393       2.70281792      -20.0000000       280287.469       1.59230685    
  -53.2043991       1.01675200      -20.0000000       280287.469       1.59230685    
  -54.6488190       1.11988902      -20.0000000       280287.469       1.59230685    
  -54.3531990       2.57653904      -20.0000000       280287.469       1.59230685    
  -45.7804108      -6.25000000      -20.0000000       230877.938       1.57902980    
  -47.2866096      -6.25000000      -20.0000000       230877.938       1.57902980    
  -47.2626686      -4.68801212      -20.0000000       230877.938       1.57902980    
  -45.7679100      -4.68779421      -20.0000000       230877.938       1.57902980    
  -47.2626686      -4.68801212      -20.0000000       287175.719       1.58091819    
  -48.7387619      -4.69004917      -20.0000000       287175.719       1.58091819    
  -48.7254105      -3.12169194      -20.0000000       287175.719       1.58091819    
  -47.2550507      -3.12222195      -20.0000000       287175.719       1.58091819    
  -54.5736809       4.04919481      -20.0000000       187245.359       1.61296928    
  -55.6295395       2.91055298      -20.0000000       187245.359       1.61296928    
  -56.8836594       3.56473303      -20.0000000       187245.359       1.61296928    
  -55.8850899       4.68635893      -20.0000000       187245.359       1.61296928    
  -48.7254105      -3.12169194      -20.0000000       312993.312       1.58255613    
  -50.1564102      -3.12996602      -20.0000000       312993.312       1.58255613    
  -50.2854195      -1.59545600      -20.0000000       312993.312       1.58255613    
  -48.7658615      -1.56390297      -20.0000000       312993.312       1.58255613    
  -50.2854195      -1.59545600      -20.0000000       317946.312       1.58483052    
  -51.8859215      -1.67511594      -20.0000000       317946.312       1.58483052    
  -51.7686501     -0.191007897      -20.0000000       317946.312       1.58483052    
  -50.2816200      -7.23225027E-02  -20.0000000       317946.312       1.58483052    
  -55.6295395       2.91055298      -20.0000000       236611.391       1.60012865    
  -54.5736809       4.04919481      -20.0000000       236611.391       1.60012865    
  -54.3531990       2.57653904      -20.0000000       236611.391       1.60012865    
  -54.3531990       2.57653904      -20.0000000       236611.391       1.60012865    
  -51.6464691       2.90894699      -20.0000000       297767.281       1.58844614    
  -51.7500000       1.29565406      -20.0000000       297767.281       1.58844614    
  -53.2043991       1.01675200      -20.0000000       297767.281       1.58844614    
  -53.0367393       2.70281792      -20.0000000       297767.281       1.58844614    
  -44.2742119      -6.25000000      -20.0000000       230160.453       1.57424152    
  -45.7804108      -6.25000000      -20.0000000       230160.453       1.57424152    
  -45.7679100      -4.68779421      -20.0000000       230160.453       1.57424152    
  -44.2670212      -4.68766403      -20.0000000       230160.453       1.57424152    
  -45.7679100      -4.68779421      -20.0000000       287576.719       1.57773221    
  -47.2626686      -4.68801212      -20.0000000       287576.719       1.57773221    
  -47.2550507      -3.12222195      -20.0000000       287576.719       1.57773221    
  -45.7611885      -3.12411094      -20.0000000       287576.719       1.57773221    
  -51.7500000       1.29565406      -20.0000000       319329.562       1.58464622    
  -50.2459984       1.47492099      -20.0000000       319329.562       1.58464622    
  -50.2816200      -7.23225027E-02  -20.0000000       319329.562       1.58464622    
  -51.7686501     -0.191007897      -20.0000000       319329.562       1.58464622    
  -47.2550507      -3.12222195      -20.0000000       316189.312       1.57983601    
  -48.7254105      -3.12169194      -20.0000000       316189.312       1.57983601    
  -48.7658615      -1.56390297      -20.0000000       316189.312       1.57983601    
  -47.2643318      -1.55986798      -20.0000000       316189.312       1.57983601    
  -48.7658615      -1.56390297      -20.0000000       325828.250       1.58197963    
  -50.2854195      -1.59545600      -20.0000000       325828.250       1.58197963    
  -50.2816200      -7.23225027E-02  -20.0000000       325828.250       1.58197963    
  -48.7753716      -1.42937005E-02  -20.0000000       325828.250       1.58197963    
  -54.5736809       4.04919481      -20.0000000       254688.844       1.59546638    
  -53.0954399       4.36336088      -20.0000000       254688.844       1.59546638    
  -53.0367393       2.70281792      -20.0000000       254688.844       1.59546638    
  -54.3531990       2.57653904      -20.0000000       254688.844       1.59546638    
  -54.6465797       5.53822613      -20.0000000       173897.766       1.61563373    
  -54.5736809       4.04919481      -20.0000000       173897.766       1.61563373    
  -55.8850899       4.68635893      -20.0000000       173897.766       1.61563373    
  -55.8850899       4.68635893      -20.0000000       173897.766       1.61563373    
  -44.2670212      -4.68766403      -20.0000000       228094.453       1.56941831    
  -42.7620697      -4.68767691      -20.0000000       228094.453       1.56941831    
  -42.7680206      -6.25000000      -20.0000000       228094.453       1.56941831    
  -44.2742119      -6.25000000      -20.0000000       228094.453       1.56941831    
  -44.2670212      -4.68766403      -20.0000000       285896.125       1.57454014    
  -45.7679100      -4.68779421      -20.0000000       285896.125       1.57454014    
  -45.7611885      -3.12411094      -20.0000000       285896.125       1.57454014    
  -44.2611694      -3.12488103      -20.0000000       285896.125       1.57454014    
  -45.7611885      -3.12411094      -20.0000000       316339.562       1.57719457    
  -47.2550507      -3.12222195      -20.0000000       316339.562       1.57719457    
  -47.2643318      -1.55986798      -20.0000000       316339.562       1.57719457    
  -45.7603798      -1.56126106      -20.0000000       316339.562       1.57719457    
  -50.2459984       1.47492099      -20.0000000       307906.094       1.58532250    
  -51.7500000       1.29565406      -20.0000000       307906.094       1.58532250    
  -51.6464691       2.90894699      -20.0000000       307906.094       1.58532250    
  -50.2011604       3.04989505      -20.0000000       307906.094       1.58532250    
  -54.6465797       5.53822613      -20.0000000       199447.297       1.60563123    
  -53.2416306       6.06926107      -20.0000000       199447.297       1.60563123    
  -53.0954399       4.36336088      -20.0000000       199447.297       1.60563123    
  -54.5736809       4.04919481      -20.0000000       199447.297       1.60563123    
  -47.2643318      -1.55986798      -20.0000000       329159.250       1.57941926    
  -48.7658615      -1.56390297      -20.0000000       329159.250       1.57941926    
  -48.7753716      -1.42937005E-02  -20.0000000       329159.250       1.57941926    
  -47.2657204       0.00000000      -20.0000000       329159.250       1.57941926    
  -48.7753716      -1.42937005E-02  -20.0000000       326201.438       1.58192968    
  -50.2816200      -7.23225027E-02  -20.0000000       326201.438       1.58192968    
  -50.2459984       1.47492099      -20.0000000       326201.438       1.58192968    
  -48.7560692       1.53868604      -20.0000000       326201.438       1.58192968    
  -51.6464691       2.90894699      -20.0000000       270564.656       1.59100330    
  -53.0367393       2.70281792      -20.0000000       270564.656       1.59100330    
  -53.0954399       4.36336088      -20.0000000       270564.656       1.59100330    
  -51.6648903       4.56408405      -20.0000000       270564.656       1.59100330    
  -41.2618294      -6.25000000      -20.0000000       224971.516       1.56455052    
  -42.7680206      -6.25000000      -20.0000000       224971.516       1.56455052    
  -42.7620697      -4.68767691      -20.0000000       224971.516       1.56455052    
  -41.2566490      -4.68782711      -20.0000000       224971.516       1.56455052    
  -44.2611694      -3.12488103      -20.0000000       282637.094       1.57131851    
  -42.7563400      -3.12513494      -20.0000000       282637.094       1.57131851    
  -42.7620697      -4.68767691      -20.0000000       282637.094       1.57131851    
  -44.2670212      -4.68766403      -20.0000000       282637.094       1.57131851    
  -44.2611694      -3.12488103      -20.0000000       314245.969       1.57456696    
  -45.7611885      -3.12411094      -20.0000000       314245.969       1.57456696    
  -45.7603798      -1.56126106      -20.0000000       314245.969       1.57456696    
  -44.2565308      -1.56226599      -20.0000000       314245.969       1.57456696    
  -45.7603798      -1.56126106      -20.0000000       329270.688       1.57697058    
  -47.2643318      -1.55986798      -20.0000000       329270.688       1.57697058    
  -47.2657204       0.00000000      -20.0000000       329270.688       1.57697058    
  -45.7582893       0.00000000      -20.0000000       329270.688       1.57697058    
  -47.2657204       0.00000000      -20.0000000       329224.812       1.57939625    
  -48.7753716      -1.42937005E-02  -20.0000000       329224.812       1.57939625    
  -48.7560692       1.53868604      -20.0000000       329224.812       1.57939625    
  -47.2535896       1.55706894      -20.0000000       329224.812       1.57939625    
  -48.7560692       1.53868604      -20.0000000       313659.750       1.58248174    
  -50.2459984       1.47492099      -20.0000000       313659.750       1.58248174    
  -50.2011604       3.04989505      -20.0000000       313659.750       1.58248174    
  -48.7281189       3.10503101      -20.0000000       313659.750       1.58248174    
  -50.2011604       3.04989505      -20.0000000       279559.188       1.58740354    
  -51.6464691       2.90894699      -20.0000000       279559.188       1.58740354    
  -51.6648903       4.56408405      -20.0000000       279559.188       1.58740354    
  -50.2067184       4.64797401      -20.0000000       279559.188       1.58740354    
  -51.6648903       4.56408405      -20.0000000       211729.891       1.59931266    
  -53.0954399       4.36336088      -20.0000000       211729.891       1.59931266    
  -53.2416306       6.06926107      -20.0000000       211729.891       1.59931266    
  -51.7500000       6.25000000      -20.0000000       211729.891       1.59931266    
  -39.7556496      -6.25000000      -20.0000000       221042.047       1.55964696    
  -41.2618294      -6.25000000      -20.0000000       221042.047       1.55964696    
  -41.2566490      -4.68782711      -20.0000000       221042.047       1.55964696    
  -39.7507591      -4.68851089      -20.0000000       221042.047       1.55964696    
  -41.2566490      -4.68782711      -20.0000000       278142.500       1.56805623    
  -42.7620697      -4.68767691      -20.0000000       278142.500       1.56805623    
  -42.7563400      -3.12513494      -20.0000000       278142.500       1.56805623    
  -41.2511406      -3.12541890      -20.0000000       278142.500       1.56805623    
  -44.2565308      -1.56226599      -20.0000000       310420.938       1.57192039    
  -42.7509499      -1.56253600      -20.0000000       310420.938       1.57192039    
  -42.7563400      -3.12513494      -20.0000000       310420.938       1.57192039    
  -44.2611694      -3.12488103      -20.0000000       310420.938       1.57192039    
  -44.2565308      -1.56226599      -20.0000000       327017.938       1.57455254    
  -45.7603798      -1.56126106      -20.0000000       327017.938       1.57455254    
  -45.7582893       0.00000000      -20.0000000       327017.938       1.57455254    
  -44.2515602       0.00000000      -20.0000000       327017.938       1.57455254    
  -45.7582893       0.00000000      -20.0000000       329262.625       1.57694948    
  -47.2657204       0.00000000      -20.0000000       329262.625       1.57694948    
  -47.2535896       1.55706894      -20.0000000       329262.625       1.57694948    
  -45.7509003       1.56100297      -20.0000000       329262.625       1.57694948    
  -47.2535896       1.55706894      -20.0000000       316284.719       1.57977605    
  -48.7560692       1.53868604      -20.0000000       316284.719       1.57977605    
  -48.7281189       3.10503101      -20.0000000       316284.719       1.57977605    
  -47.2370110       3.11982203      -20.0000000       316284.719       1.57977605    
  -48.7281189       3.10503101      -20.0000000       284809.438       1.58404982    
  -50.2011604       3.04989505      -20.0000000       284809.438       1.58404982    
  -50.2067184       4.64797401      -20.0000000       284809.438       1.58404982    
  -48.7241211       4.67746210      -20.0000000       284809.438       1.58404982    
  -50.2067184       4.64797401      -20.0000000       220919.547       1.59365118    
  -51.6648903       4.56408405      -20.0000000       220919.547       1.59365118    
  -51.7500000       6.25000000      -20.0000000       220919.547       1.59365118    
  -50.2455711       6.25000000      -20.0000000       220919.547       1.59365118    
  -38.2494698      -6.25000000      -20.0000000       216446.609       1.55472481    
  -39.7556496      -6.25000000      -20.0000000       216446.609       1.55472481    
  -39.7507591      -4.68851089      -20.0000000       216446.609       1.55472481    
  -38.2446404      -4.68936491      -20.0000000       216446.609       1.55472481    
  -39.7507591      -4.68851089      -20.0000000       272658.438       1.56475568    
  -41.2566490      -4.68782711      -20.0000000       272658.438       1.56475568    
  -41.2511406      -3.12541890      -20.0000000       272658.438       1.56475568    
  -39.7453995      -3.12673903      -20.0000000       272658.438       1.56475568    
  -41.2511406      -3.12541890      -20.0000000       305267.969       1.56924725    
  -42.7563400      -3.12513494      -20.0000000       305267.969       1.56924725    
  -42.7509499      -1.56253600      -20.0000000       305267.969       1.56924725    
  -41.2455711      -1.56282198      -20.0000000       305267.969       1.56924725    
  -44.2515602       0.00000000      -20.0000000       322969.219       1.57212961    
  -42.7457504       0.00000000      -20.0000000       322969.219       1.57212961    
  -42.7509499      -1.56253600      -20.0000000       322969.219       1.57212961    
  -44.2565308      -1.56226599      -20.0000000       322969.219       1.57212961    
  -44.2515602       0.00000000      -20.0000000       327003.406       1.57453263    
  -45.7582893       0.00000000      -20.0000000       327003.406       1.57453263    
  -45.7509003       1.56100297      -20.0000000       327003.406       1.57453263    
  -44.2452011       1.56199801      -20.0000000       327003.406       1.57453263    
  -45.7509003       1.56100297      -20.0000000       316291.875       1.57712853    
  -47.2535896       1.55706894      -20.0000000       316291.875       1.57712853    
  -47.2370110       3.11982203      -20.0000000       316291.875       1.57712853    
  -45.7402802       3.12332392      -20.0000000       316291.875       1.57712853    
  -47.2370110       3.11982203      -20.0000000       287339.969       1.58080029    
  -48.7281189       3.10503101      -20.0000000       287339.969       1.58080029    
  -48.7241211       4.67746210      -20.0000000       287339.969       1.58080029    
  -47.2300911       4.68496799      -20.0000000       287339.969       1.58080029    
  -48.7241211       4.67746210      -20.0000000       226966.375       1.58845758    
  -50.2067184       4.64797401      -20.0000000       226966.375       1.58845758    
  -50.2455711       6.25000000      -20.0000000       226966.375       1.58845758    
  -48.7411499       6.25000000      -20.0000000       226966.375       1.58845758    
  -36.7432899      -6.25000000      -20.0000000       211298.219       1.54980397    
  -38.2494698      -6.25000000      -20.0000000       211298.219       1.54980397    
  -38.2446404      -4.68936491      -20.0000000       211298.219       1.54980397    
  -36.7384796      -4.68897390      -20.0000000       211298.219       1.54980397    
  -38.2446404      -4.68936491      -20.0000000       266388.500       1.56143069    
  -39.7507591      -4.68851089      -20.0000000       266388.500       1.56143069    
  -39.7453995      -3.12673903      -20.0000000       266388.500       1.56143069    
  -38.2396507      -3.12933803      -20.0000000       266388.500       1.56143069    
  -39.7453995      -3.12673903      -20.0000000       299039.312       1.56653917    
  -41.2511406      -3.12541890      -20.0000000       299039.312       1.56653917    
  -41.2455711      -1.56282198      -20.0000000       299039.312       1.56653917    
  -39.7399902      -1.56351995      -20.0000000       299039.312       1.56653917    
  -41.2455711      -1.56282198      -20.0000000       317534.781       1.56968665    
  -42.7509499      -1.56253600      -20.0000000       317534.781       1.56968665    
  -42.7457504       0.00000000      -20.0000000       317534.781       1.56968665    
  -41.2401695       0.00000000      -20.0000000       317534.781       1.56968665    
  -44.2452011       1.56199801      -20.0000000       322937.375       1.57210922    
  -42.7402611       1.56238496      -20.0000000       322937.375       1.57210922    
  -42.7457504       0.00000000      -20.0000000       322937.375       1.57210922    
  -44.2515602       0.00000000      -20.0000000       322937.375       1.57210922    
  -44.2452011       1.56199801      -20.0000000       314160.344       1.57449651    
  -45.7509003       1.56100297      -20.0000000       314160.344       1.57449651    
  -45.7402802       3.12332392      -20.0000000       314160.344       1.57449651    
  -44.2380295       3.12447906      -20.0000000       314160.344       1.57449651    
  -45.7402802       3.12332392      -20.0000000       287552.438       1.57760179    
  -47.2370110       3.11982203      -20.0000000       287552.438       1.57760179    
  -47.2300911       4.68496799      -20.0000000       287552.438       1.57760179    
  -45.7329903       4.68700409      -20.0000000       287552.438       1.57760179    
  -47.2300911       4.68496799      -20.0000000       229993.234       1.58355629    
  -48.7241211       4.67746210      -20.0000000       229993.234       1.58355629    
  -48.7411499       6.25000000      -20.0000000       229993.234       1.58355629    
  -47.2367287       6.25000000      -20.0000000       229993.234       1.58355629    
  -35.2371101      -6.25000000      -20.0000000       205706.438       1.54492795    
  -36.7432899      -6.25000000      -20.0000000       205706.438       1.54492795    
  -36.7384796      -4.68897390      -20.0000000       205706.438       1.54492795    
  -35.2325211      -4.68835878      -20.0000000       205706.438       1.54492795    
  -36.7384796      -4.68897390      -20.0000000       259473.609       1.55808878    
  -38.2446404      -4.68936491      -20.0000000       259473.609       1.55808878    
  -38.2396507      -3.12933803      -20.0000000       259473.609       1.55808878    
  -36.7339096      -3.12783909      -20.0000000       259473.609       1.55808878    
  -38.2396507      -3.12933803      -20.0000000       291960.812       1.56380999    
  -39.7453995      -3.12673903      -20.0000000       291960.812       1.56380999    
  -39.7399902      -1.56351995      -20.0000000       291960.812       1.56380999    
  -38.2346497      -1.56438303      -20.0000000       291960.812       1.56380999    
  -39.7399902      -1.56351995      -20.0000000       310955.719       1.56720889    
  -41.2455711      -1.56282198      -20.0000000       310955.719       1.56720889    
  -41.2401695       0.00000000      -20.0000000       310955.719       1.56720889    