 VARIABLES="X" "Y" "Z" "abs(p) (Pa)" "angle(p) (rad)"
ZONE N=   3650,E =    3624, F=FEPOINT, ET=QUADRILATERAL
  -56.5164909      -2.47323704      -20.0000000       1303.61133       2.56614137    
  -55.4176407      -3.26747894      -20.0000000       1303.61133       2.56614137    
  -55.9264717      -4.64953518      -20.0000000       1303.61133       2.56614137    
  -56.9148483      -3.51935697      -20.0000000       1303.61133       2.56614137    
  -56.9148483      -3.51935697      -20.0000000       1396.72144       2.48219681    
  -57.6058807      -2.18402195      -20.0000000       1396.72144       2.48219681    
  -56.5164909      -2.47323704      -20.0000000       1396.72144       2.48219681    
  -56.5164909      -2.47323704      -20.0000000       1396.72144       2.48219681    
  -54.6953812      -5.51239681      -20.0000000       1234.65967       2.65237927    
  -55.9264717      -4.64953518      -20.0000000       1234.65967       2.65237927    
  -55.4176407      -3.26747894      -20.0000000       1234.65967       2.65237927    
  -54.2450790      -3.94889998      -20.0000000       1234.65967       2.65237927    
  -54.2450790      -3.94889998      -20.0000000       1179.63257       2.74461293    
  -52.9834785      -4.46340179      -20.0000000       1179.63257       2.74461293    
  -53.2955093      -6.05576801      -20.0000000       1179.63257       2.74461293    
  -54.6953812      -5.51239681      -20.0000000       1179.63257       2.74461293    
  -56.5223999      -1.11500299      -20.0000000       1366.67932       2.49461818    
  -56.5164909      -2.47323704      -20.0000000       1366.67932       2.49461818    
  -57.6058807      -2.18402195      -20.0000000       1366.67932       2.49461818    
  -57.9577713     -0.724482894      -20.0000000       1366.67932       2.49461818    
  -56.5164909      -2.47323704      -20.0000000       1217.89099       2.63221645    
  -56.5223999      -1.11500299      -20.0000000       1217.89099       2.63221645    
  -55.1657600      -1.76926601      -20.0000000       1217.89099       2.63221645    
  -55.4176407      -3.26747894      -20.0000000       1217.89099       2.63221645    
  -54.2450790      -3.94889998      -20.0000000       1153.00793       2.71797419    
  -55.4176407      -3.26747894      -20.0000000       1153.00793       2.71797419    
  -55.1657600      -1.76926601      -20.0000000       1153.00793       2.71797419    
  -53.8819199      -2.32836604      -20.0000000       1153.00793       2.71797419    
  -52.9834785      -4.46340179      -20.0000000       1136.78076       2.83748102    
  -51.6155815      -4.69134283      -20.0000000       1136.78076       2.83748102    
  -51.8049088      -6.24783087      -20.0000000       1136.78076       2.83748102    
  -53.2955093      -6.05576801      -20.0000000       1136.78076       2.83748102    
  -56.3964119      0.254809886      -20.0000000       1357.43750       2.49621272    
  -56.5223999      -1.11500299      -20.0000000       1357.43750       2.49621272    
  -57.9577713     -0.724482894      -20.0000000       1357.43750       2.49621272    
  -57.9511719      0.779103875      -20.0000000       1357.43750       2.49621272    
  -53.8819199      -2.32836604      -20.0000000       1113.85315       2.78794312    
  -52.7235603      -2.92538095      -20.0000000       1113.85315       2.78794312    
  -52.9834785      -4.46340179      -20.0000000       1113.85315       2.78794312    
  -54.2450790      -3.94889998      -20.0000000       1113.85315       2.78794312    
  -56.5223999      -1.11500299      -20.0000000       1189.86621       2.65278220    
  -56.3964119      0.254809886      -20.0000000       1189.86621       2.65278220    
  -54.8835487     -0.325594515      -20.0000000       1189.86621       2.65278220    
  -55.1657600      -1.76926601      -20.0000000       1189.86621       2.65278220    
  -50.2990494      -6.25000000      -20.0000000       1106.34082       2.91533446    
  -51.8049088      -6.24783087      -20.0000000       1106.34082       2.91533446    
  -51.6155815      -4.69134283      -20.0000000       1106.34082       2.91533446    
  -50.1911316      -4.70199823      -20.0000000       1106.34082       2.91533446    
  -53.8819199      -2.32836604      -20.0000000       1117.34827       2.74765515    
  -55.1657600      -1.76926601      -20.0000000       1117.34827       2.74765515    
  -54.8835487     -0.325594515      -20.0000000       1117.34827       2.74765515    
  -53.3087082     -0.726661325      -20.0000000       1117.34827       2.74765515    
  -52.7235603      -2.92538095      -20.0000000       1085.07031       2.85196471    
  -51.4683685      -3.18431592      -20.0000000       1085.07031       2.85196471    
  -51.6155815      -4.69134283      -20.0000000       1085.07031       2.85196471    
  -52.9834785      -4.46340179      -20.0000000       1085.07031       2.85196471    
  -56.1067696       1.60355306      -20.0000000       1341.95752       2.51028752    
  -56.3964119      0.254809886      -20.0000000       1341.95752       2.51028752    
  -57.9511719      0.779103875      -20.0000000       1341.95752       2.51028752    
  -57.5863686       2.23558092      -20.0000000       1341.95752       2.51028752    
  -56.3964119      0.254809886      -20.0000000       1175.56128       2.66870785    
  -56.1067696       1.60355306      -20.0000000       1175.56128       2.66870785    
  -54.6488190       1.11988902      -20.0000000       1175.56128       2.66870785    
  -54.8835487     -0.325594515      -20.0000000       1175.56128       2.66870785    
  -51.8859215      -1.67511594      -20.0000000       1077.68677       2.81652141    
  -52.7235603      -2.92538095      -20.0000000       1077.68677       2.81652141    
  -53.8819199      -2.32836604      -20.0000000       1077.68677       2.81652141    
  -53.3087082     -0.726661325      -20.0000000       1077.68677       2.81652141    
  -48.7928200      -6.25000000      -20.0000000       1086.12488       2.97159433    
  -50.2990494      -6.25000000      -20.0000000       1086.12488       2.97159433    
  -50.1911316      -4.70199823      -20.0000000       1086.12488       2.97159433    
  -48.7387619      -4.69004917      -20.0000000       1086.12488       2.97159433    
  -50.1911316      -4.70199823      -20.0000000       1060.78284       2.90816450    
  -51.6155815      -4.69134283      -20.0000000       1060.78284       2.90816450    
  -51.4683685      -3.18431592      -20.0000000       1060.78284       2.90816450    
  -50.1564102      -3.12996602      -20.0000000       1060.78284       2.90816450    
  -54.6488190       1.11988902      -20.0000000       1102.55298       2.76445293    
  -53.2043991       1.01675200      -20.0000000       1102.55298       2.76445293    
  -53.3087082     -0.726661325      -20.0000000       1102.55298       2.76445293    
  -54.8835487     -0.325594515      -20.0000000       1102.55298       2.76445293    
  -51.4683685      -3.18431592      -20.0000000       1062.63110       2.85720730    
  -52.7235603      -2.92538095      -20.0000000       1062.63110       2.85720730    
  -51.8859215      -1.67511594      -20.0000000       1062.63110       2.85720730    
  -51.8859215      -1.67511594      -20.0000000       1062.63110       2.85720730    
  -55.6295395       2.91055298      -20.0000000       1318.42810       2.53932619    
  -56.1067696       1.60355306      -20.0000000       1318.42810       2.53932619    
  -57.5863686       2.23558092      -20.0000000       1318.42810       2.53932619    
  -56.8836594       3.56473303      -20.0000000       1318.42810       2.53932619    
  -47.2866096      -6.25000000      -20.0000000       1072.06665       3.01250410    
  -48.7928200      -6.25000000      -20.0000000       1072.06665       3.01250410    
  -48.7387619      -4.69004917      -20.0000000       1072.06665       3.01250410    
  -47.2626686      -4.68801212      -20.0000000       1072.06665       3.01250410    
  -48.7387619      -4.69004917      -20.0000000       1041.23181       2.95325804    
  -50.1911316      -4.70199823      -20.0000000       1041.23181       2.95325804    
  -50.1564102      -3.12996602      -20.0000000       1041.23181       2.95325804    
  -48.7254105      -3.12169194      -20.0000000       1041.23181       2.95325804    
  -50.1564102      -3.12996602      -20.0000000       1040.42554       2.89643955    
  -51.4683685      -3.18431592      -20.0000000       1040.42554       2.89643955    
  -51.8859215      -1.67511594      -20.0000000       1040.42554       2.89643955    
  -50.2854195      -1.59545600      -20.0000000       1040.42554       2.89643955    
  -54.6488190       1.11988902      -20.0000000       1169.53650       2.68556094    
  -56.1067696       1.60355306      -20.0000000       1169.53650       2.68556094    
  -55.6295395       2.91055298      -20.0000000       1169.53650       2.68556094    
  -54.3531990       2.57653904      -20.0000000       1169.53650       2.68556094    
  -51.7686501     -0.191007897      -20.0000000       1056.61304       2.84283066    
  -51.8859215      -1.67511594      -20.0000000       1056.61304       2.84283066    
  -53.3087082     -0.726661325      -20.0000000       1056.61304       2.84283066    
  -53.3087082     -0.726661325      -20.0000000       1056.61304       2.84283066    
  -51.7686501     -0.191007897      -20.0000000       1060.06604       2.83426023    
  -53.3087082     -0.726661325      -20.0000000       1060.06604       2.83426023    
  -53.2043991       1.01675200      -20.0000000       1060.06604       2.83426023    
  -51.7500000       1.29565406      -20.0000000       1060.06604       2.83426023    
  -53.0367393       2.70281792      -20.0000000       1103.89050       2.77334023    
  -53.2043991       1.01675200      -20.0000000       1103.89050       2.77334023    
  -54.6488190       1.11988902      -20.0000000       1103.89050       2.77334023    
  -54.3531990       2.57653904      -20.0000000       1103.89050       2.77334023    
  -45.7804108      -6.25000000      -20.0000000       1060.77905       3.04175973    
  -47.2866096      -6.25000000      -20.0000000       1060.77905       3.04175973    
  -47.2626686      -4.68801212      -20.0000000       1060.77905       3.04175973    
  -45.7679100      -4.68779421      -20.0000000       1060.77905       3.04175973    
  -47.2626686      -4.68801212      -20.0000000       1026.23169       2.98899317    
  -48.7387619      -4.69004917      -20.0000000       1026.23169       2.98899317    
  -48.7254105      -3.12169194      -20.0000000       1026.23169       2.98899317    
  -47.2550507      -3.12222195      -20.0000000       1026.23169       2.98899317    
  -54.5736809       4.04919481      -20.0000000       1272.39783       2.59987593    
  -55.6295395       2.91055298      -20.0000000       1272.39783       2.59987593    
  -56.8836594       3.56473303      -20.0000000       1272.39783       2.59987593    
  -55.8850899       4.68635893      -20.0000000       1272.39783       2.59987593    
  -48.7254105      -3.12169194      -20.0000000       1019.59705       2.94118452    
  -50.1564102      -3.12996602      -20.0000000       1019.59705       2.94118452    
  -50.2854195      -1.59545600      -20.0000000       1019.59705       2.94118452    
  -48.7658615      -1.56390297      -20.0000000       1019.59705       2.94118452    
  -50.2854195      -1.59545600      -20.0000000       1032.51294       2.88927579    
  -51.8859215      -1.67511594      -20.0000000       1032.51294       2.88927579    
  -51.7686501     -0.191007897      -20.0000000       1032.51294       2.88927579    
  -50.2816200      -7.23225027E-02  -20.0000000       1032.51294       2.88927579    
  -55.6295395       2.91055298      -20.0000000       1171.04407       2.70128012    
  -54.5736809       4.04919481      -20.0000000       1171.04407       2.70128012    
  -54.3531990       2.57653904      -20.0000000       1171.04407       2.70128012    
  -54.3531990       2.57653904      -20.0000000       1171.04407       2.70128012    
  -51.6464691       2.90894699      -20.0000000       1065.38867       2.84007525    
  -51.7500000       1.29565406      -20.0000000       1065.38867       2.84007525    
  -53.2043991       1.01675200      -20.0000000       1065.38867       2.84007525    
  -53.0367393       2.70281792      -20.0000000       1065.38867       2.84007525    
  -44.2742119      -6.25000000      -20.0000000       1050.33911       3.06092310    
  -45.7804108      -6.25000000      -20.0000000       1050.33911       3.06092310    
  -45.7679100      -4.68779421      -20.0000000       1050.33911       3.06092310    
  -44.2670212      -4.68766403      -20.0000000       1050.33911       3.06092310    
  -45.7679100      -4.68779421      -20.0000000       1013.69208       3.01558638    
  -47.2626686      -4.68801212      -20.0000000       1013.69208       3.01558638    
  -47.2550507      -3.12222195      -20.0000000       1013.69208       3.01558638    
  -45.7611885      -3.12411094      -20.0000000       1013.69208       3.01558638    
  -51.7500000       1.29565406      -20.0000000       1030.90161       2.89104390    
  -50.2459984       1.47492099      -20.0000000       1030.90161       2.89104390    
  -50.2816200      -7.23225027E-02  -20.0000000       1030.90161       2.89104390    
  -51.7686501     -0.191007897      -20.0000000       1030.90161       2.89104390    
  -47.2550507      -3.12222195      -20.0000000       1003.66846       2.97567797    
  -48.7254105      -3.12169194      -20.0000000       1003.66846       2.97567797    
  -48.7658615      -1.56390297      -20.0000000       1003.66846       2.97567797    
  -47.2643318      -1.55986798      -20.0000000       1003.66846       2.97567797    
  -48.7658615      -1.56390297      -20.0000000       1010.49811       2.93464756    
  -50.2854195      -1.59545600      -20.0000000       1010.49811       2.93464756    
  -50.2816200      -7.23225027E-02  -20.0000000       1010.49811       2.93464756    
  -48.7753716      -1.42937005E-02  -20.0000000       1010.49811       2.93464756    
  -54.5736809       4.04919481      -20.0000000       1125.23926       2.77072334    
  -53.0954399       4.36336088      -20.0000000       1125.23926       2.77072334    
  -53.0367393       2.70281792      -20.0000000       1125.23926       2.77072334    
  -54.3531990       2.57653904      -20.0000000       1125.23926       2.77072334    
  -54.6465797       5.53822613      -20.0000000       1258.21326       2.63927150    
  -54.5736809       4.04919481      -20.0000000       1258.21326       2.63927150    
  -55.8850899       4.68635893      -20.0000000       1258.21326       2.63927150    
  -55.8850899       4.68635893      -20.0000000       1258.21326       2.63927150    
  -44.2670212      -4.68766403      -20.0000000       1039.68811       3.07136989    
  -42.7620697      -4.68767691      -20.0000000       1039.68811       3.07136989    
  -42.7680206      -6.25000000      -20.0000000       1039.68811       3.07136989    
  -44.2742119      -6.25000000      -20.0000000       1039.68811       3.07136989    
  -44.2670212      -4.68766403      -20.0000000       1002.16150       3.03355575    
  -45.7679100      -4.68779421      -20.0000000       1002.16150       3.03355575    
  -45.7611885      -3.12411094      -20.0000000       1002.16150       3.03355575    
  -44.2611694      -3.12488103      -20.0000000       1002.16150       3.03355575    
  -45.7611885      -3.12411094      -20.0000000       990.335999       3.00130534    
  -47.2550507      -3.12222195      -20.0000000       990.335999       3.00130534    
  -47.2643318      -1.55986798      -20.0000000       990.335999       3.00130534    
  -45.7603798      -1.56126106      -20.0000000       990.335999       3.00130534    
  -50.2459984       1.47492099      -20.0000000       1038.85144       2.89595795    
  -51.7500000       1.29565406      -20.0000000       1038.85144       2.89595795    
  -51.6464691       2.90894699      -20.0000000       1038.85144       2.89595795    
  -50.2011604       3.04989505      -20.0000000       1038.85144       2.89595795    
  -54.6465797       5.53822613      -20.0000000       1182.58350       2.74084425    
  -53.2416306       6.06926107      -20.0000000       1182.58350       2.74084425    
  -53.0954399       4.36336088      -20.0000000       1182.58350       2.74084425    
  -54.5736809       4.04919481      -20.0000000       1182.58350       2.74084425    
  -47.2643318      -1.55986798      -20.0000000       993.822571       2.96925688    
  -48.7658615      -1.56390297      -20.0000000       993.822571       2.96925688    
  -48.7753716      -1.42937005E-02  -20.0000000       993.822571       2.96925688    
  -47.2657204       0.00000000      -20.0000000       993.822571       2.96925688    
  -48.7753716      -1.42937005E-02  -20.0000000       1010.14014       2.93495703    
  -50.2816200      -7.23225027E-02  -20.0000000       1010.14014       2.93495703    
  -50.2459984       1.47492099      -20.0000000       1010.14014       2.93495703    
  -48.7560692       1.53868604      -20.0000000       1010.14014       2.93495703    
  -51.6464691       2.90894699      -20.0000000       1085.59155       2.84461975    
  -53.0367393       2.70281792      -20.0000000       1085.59155       2.84461975    
  -53.0954399       4.36336088      -20.0000000       1085.59155       2.84461975    
  -51.6648903       4.56408405      -20.0000000       1085.59155       2.84461975    
  -41.2618294      -6.25000000      -20.0000000       1028.25977       3.07403922    
  -42.7680206      -6.25000000      -20.0000000       1028.25977       3.07403922    
  -42.7620697      -4.68767691      -20.0000000       1028.25977       3.07403922    
  -41.2566490      -4.68782711      -20.0000000       1028.25977       3.07403922    
  -44.2611694      -3.12488103      -20.0000000       990.725708       3.04373121    
  -42.7563400      -3.12513494      -20.0000000       990.725708       3.04373121    
  -42.7620697      -4.68767691      -20.0000000       990.725708       3.04373121    
  -44.2670212      -4.68766403      -20.0000000       990.725708       3.04373121    
  -44.2611694      -3.12488103      -20.0000000       978.166443       3.01878047    
  -45.7611885      -3.12411094      -20.0000000       978.166443       3.01878047    
  -45.7603798      -1.56126106      -20.0000000       978.166443       3.01878047    
  -44.2565308      -1.56226599      -20.0000000       978.166443       3.01878047    
  -45.7603798      -1.56126106      -20.0000000       979.990295       2.99467874    
  -47.2643318      -1.55986798      -20.0000000       979.990295       2.99467874    
  -47.2657204       0.00000000      -20.0000000       979.990295       2.99467874    
  -45.7582893       0.00000000      -20.0000000       979.990295       2.99467874    
  -47.2657204       0.00000000      -20.0000000       993.767151       2.96944118    
  -48.7753716      -1.42937005E-02  -20.0000000       993.767151       2.96944118    
  -48.7560692       1.53868604      -20.0000000       993.767151       2.96944118    
  -47.2535896       1.55706894      -20.0000000       993.767151       2.96944118    
  -48.7560692       1.53868604      -20.0000000       1019.20551       2.94121289    
  -50.2459984       1.47492099      -20.0000000       1019.20551       2.94121289    
  -50.2011604       3.04989505      -20.0000000       1019.20551       2.94121289    
  -48.7281189       3.10503101      -20.0000000       1019.20551       2.94121289    
  -50.2011604       3.04989505      -20.0000000       1059.63708       2.90471983    
  -51.6464691       2.90894699      -20.0000000       1059.63708       2.90471983    
  -51.6648903       4.56408405      -20.0000000       1059.63708       2.90471983    
  -50.2067184       4.64797401      -20.0000000       1059.63708       2.90471983    
  -51.6648903       4.56408405      -20.0000000       1134.90466       2.83786249    
  -53.0954399       4.36336088      -20.0000000       1134.90466       2.83786249    
  -53.2416306       6.06926107      -20.0000000       1134.90466       2.83786249    
  -51.7500000       6.25000000      -20.0000000       1134.90466       2.83786249    
  -39.7556496      -6.25000000      -20.0000000       1015.72168       3.06986880    
  -41.2618294      -6.25000000      -20.0000000       1015.72168       3.06986880    
  -41.2566490      -4.68782711      -20.0000000       1015.72168       3.06986880    
  -39.7507591      -4.68851089      -20.0000000       1015.72168       3.06986880    
  -41.2566490      -4.68782711      -20.0000000       978.823792       3.04693007    
  -42.7620697      -4.68767691      -20.0000000       978.823792       3.04693007    
  -42.7563400      -3.12513494      -20.0000000       978.823792       3.04693007    
  -41.2511406      -3.12541890      -20.0000000       978.823792       3.04693007    
  -44.2565308      -1.56226599      -20.0000000       966.285156       3.02890992    
  -42.7509499      -1.56253600      -20.0000000       966.285156       3.02890992    
  -42.7563400      -3.12513494      -20.0000000       966.285156       3.02890992    
  -44.2611694      -3.12488103      -20.0000000       966.285156       3.02890992    
  -44.2565308      -1.56226599      -20.0000000       967.481018       3.01200843    
  -45.7603798      -1.56126106      -20.0000000       967.481018       3.01200843    
  -45.7582893       0.00000000      -20.0000000       967.481018       3.01200843    
  -44.2515602       0.00000000      -20.0000000       967.481018       3.01200843    
  -45.7582893       0.00000000      -20.0000000       979.991516       2.99484229    
  -47.2657204       0.00000000      -20.0000000       979.991516       2.99484229    
  -47.2535896       1.55706894      -20.0000000       979.991516       2.99484229    
  -45.7509003       1.56100297      -20.0000000       979.991516       2.99484229    
  -47.2535896       1.55706894      -20.0000000       1003.64020       2.97610641    
  -48.7560692       1.53868604      -20.0000000       1003.64020       2.97610641    
  -48.7281189       3.10503101      -20.0000000       1003.64020       2.97610641    
  -47.2370110       3.11982203      -20.0000000       1003.64020       2.97610641    
  -48.7281189       3.10503101      -20.0000000       1040.86047       2.95295143    
  -50.2011604       3.04989505      -20.0000000       1040.86047       2.95295143    
  -50.2067184       4.64797401      -20.0000000       1040.86047       2.95295143    
  -48.7241211       4.67746210      -20.0000000       1040.86047       2.95295143    
  -50.2067184       4.64797401      -20.0000000       1104.71265       2.91583562    
  -51.6648903       4.56408405      -20.0000000       1104.71265       2.91583562    
  -51.7500000       6.25000000      -20.0000000       1104.71265       2.91583562    
  -50.2455711       6.25000000      -20.0000000       1104.71265       2.91583562    
  -38.2494698      -6.25000000      -20.0000000       1001.98840       3.05964184    
  -39.7556496      -6.25000000      -20.0000000       1001.98840       3.05964184    
  -39.7507591      -4.68851089      -20.0000000       1001.98840       3.05964184    
  -38.2446404      -4.68936491      -20.0000000       1001.98840       3.05964184    
  -39.7507591      -4.68851089      -20.0000000       966.148376       3.04396582    
  -41.2566490      -4.68782711      -20.0000000       966.148376       3.04396582    
  -41.2511406      -3.12541890      -20.0000000       966.148376       3.04396582    
  -39.7453995      -3.12673903      -20.0000000       966.148376       3.04396582    
  -41.2511406      -3.12541890      -20.0000000       954.099426       3.03239846    
  -42.7563400      -3.12513494      -20.0000000       954.099426       3.03239846    
  -42.7509499      -1.56253600      -20.0000000       954.099426       3.03239846    
  -41.2455711      -1.56282198      -20.0000000       954.099426       3.03239846    
  -44.2515602       0.00000000      -20.0000000       955.358582       3.02209640    
  -42.7457504       0.00000000      -20.0000000       955.358582       3.02209640    
  -42.7509499      -1.56253600      -20.0000000       955.358582       3.02209640    
  -44.2565308      -1.56226599      -20.0000000       955.358582       3.02209640    
  -44.2515602       0.00000000      -20.0000000       967.489563       3.01213121    
  -45.7582893       0.00000000      -20.0000000       967.489563       3.01213121    
  -45.7509003       1.56100297      -20.0000000       967.489563       3.01213121    
  -44.2452011       1.56199801      -20.0000000       967.489563       3.01213121    
  -45.7509003       1.56100297      -20.0000000       990.379150       3.00180960    
  -47.2535896       1.55706894      -20.0000000       990.379150       3.00180960    
  -47.2370110       3.11982203      -20.0000000       990.379150       3.00180960    
  -45.7402802       3.12332392      -20.0000000       990.379150       3.00180960    
  -47.2370110       3.11982203      -20.0000000       1026.19116       2.98971510    
  -48.7281189       3.10503101      -20.0000000       1026.19116       2.98971510    
  -48.7241211       4.67746210      -20.0000000       1026.19116       2.98971510    
  -47.2300911       4.68496799      -20.0000000       1026.19116       2.98971510    
  -48.7241211       4.67746210      -20.0000000       1085.51465       2.97271538    
  -50.2067184       4.64797401      -20.0000000       1085.51465       2.97271538    
  -50.2455711       6.25000000      -20.0000000       1085.51465       2.97271538    
  -48.7411499       6.25000000      -20.0000000       1085.51465       2.97271538    
  -36.7432899      -6.25000000      -20.0000000       987.080322       3.04405093    
  -38.2494698      -6.25000000      -20.0000000       987.080322       3.04405093    
  -38.2446404      -4.68936491      -20.0000000       987.080322       3.04405093    
  -36.7384796      -4.68897390      -20.0000000       987.080322       3.04405093    
  -38.2446404      -4.68936491      -20.0000000       952.527161       3.03540730    
  -39.7507591      -4.68851089      -20.0000000       952.527161       3.03540730    
  -39.7453995      -3.12673903      -20.0000000       952.527161       3.03540730    
  -38.2396507      -3.12933803      -20.0000000       952.527161       3.03540730    
  -39.7453995      -3.12673903      -20.0000000       941.282104       3.03008533    
  -41.2511406      -3.12541890      -20.0000000       941.282104       3.03008533    
  -41.2455711      -1.56282198      -20.0000000       941.282104       3.03008533    
  -39.7399902      -1.56351995      -20.0000000       941.282104       3.03008533    
  -41.2455711      -1.56282198      -20.0000000       943.021912       3.02568936    
  -42.7509499      -1.56253600      -20.0000000       943.021912       3.02568936    
  -42.7457504       0.00000000      -20.0000000       943.021912       3.02568936    
  -41.2401695       0.00000000      -20.0000000       943.021912       3.02568936    
  -44.2452011       1.56199801      -20.0000000       955.381042       3.02219415    
  -42.7402611       1.56238496      -20.0000000       955.381042       3.02219415    
  -42.7457504       0.00000000      -20.0000000       955.381042       3.02219415    
  -44.2515602       0.00000000      -20.0000000       955.381042       3.02219415    
  -44.2452011       1.56199801      -20.0000000       978.225830       3.01924801    
  -45.7509003       1.56100297      -20.0000000       978.225830       3.01924801    
  -45.7402802       3.12332392      -20.0000000       978.225830       3.01924801    
  -44.2380295       3.12447906      -20.0000000       978.225830       3.01924801    
  -45.7402802       3.12332392      -20.0000000       1013.73151       3.01637077    
  -47.2370110       3.11982203      -20.0000000       1013.73151       3.01637077    
  -47.2300911       4.68496799      -20.0000000       1013.73151       3.01637077    
  -45.7329903       4.68700409      -20.0000000       1013.73151       3.01637077    
  -47.2300911       4.68496799      -20.0000000       1071.98975       3.01386023    
  -48.7241211       4.67746210      -20.0000000       1071.98975       3.01386023    
  -48.7411499       6.25000000      -20.0000000       1071.98975       3.01386023    
  -47.2367287       6.25000000      -20.0000000       1071.98975       3.01386023    
  -35.2371101      -6.25000000      -20.0000000       971.086121       3.02355671    
  -36.7432899      -6.25000000      -20.0000000       971.086121       3.02355671    
  -36.7384796      -4.68897390      -20.0000000       971.086121       3.02355671    
  -35.2325211      -4.68835878      -20.0000000       971.086121       3.02355671    
  -36.7384796      -4.68897390      -20.0000000       937.913513       3.02188134    
  -38.2446404      -4.68936491      -20.0000000       937.913513       3.02188134    
  -38.2396507      -3.12933803      -20.0000000       937.913513       3.02188134    
  -36.7339096      -3.12783909      -20.0000000       937.913513       3.02188134    
  -38.2396507      -3.12933803      -20.0000000       927.645264       3.02238655    
  -39.7453995      -3.12673903      -20.0000000       927.645264       3.02238655    
  -39.7399902      -1.56351995      -20.0000000       927.645264       3.02238655    
  -38.2346497      -1.56438303      -20.0000000       927.645264       3.02238655    
  -39.7399902      -1.56351995      -20.0000000       930.154053       3.02365851    
  -41.2455711      -1.56282198      -20.0000000       930.154053       3.02365851    
  -41.2401695       0.00000000      -20.0000000       930.154053       3.02365851    