 VARIABLES="X" "Y" "Z" "abs(p) (Pa)" "angle(p) (rad)"
ZONE N=   3650,E =    3624, F=FEPOINT, ET=QUADRILATERAL
  -56.5164909      -2.47323704      -20.0000000       8.85118484      0.957272172    
  -55.4176407      -3.26747894      -20.0000000       8.85118484      0.957272172    
  -55.9264717      -4.64953518      -20.0000000       8.85118484      0.957272172    
  -56.9148483      -3.51935697      -20.0000000       8.85118484      0.957272172    
  -56.9148483      -3.51935697      -20.0000000       8.96173382      0.957775891    
  -57.6058807      -2.18402195      -20.0000000       8.96173382      0.957775891    
  -56.5164909      -2.47323704      -20.0000000       8.96173382      0.957775891    
  -56.5164909      -2.47323704      -20.0000000       8.96173382      0.957775891    
  -54.6953812      -5.51239681      -20.0000000       8.86899853      0.955637515    
  -55.9264717      -4.64953518      -20.0000000       8.86899853      0.955637515    
  -55.4176407      -3.26747894      -20.0000000       8.86899853      0.955637515    
  -54.2450790      -3.94889998      -20.0000000       8.86899853      0.955637515    
  -54.2450790      -3.94889998      -20.0000000       8.89692307      0.952743292    
  -52.9834785      -4.46340179      -20.0000000       8.89692307      0.952743292    
  -53.2955093      -6.05576801      -20.0000000       8.89692307      0.952743292    
  -54.6953812      -5.51239681      -20.0000000       8.89692307      0.952743292    
  -56.5223999      -1.11500299      -20.0000000       8.72227764      0.956879258    
  -56.5164909      -2.47323704      -20.0000000       8.72227764      0.956879258    
  -57.6058807      -2.18402195      -20.0000000       8.72227764      0.956879258    
  -57.9577713     -0.724482894      -20.0000000       8.72227764      0.956879258    
  -56.5164909      -2.47323704      -20.0000000       8.33065605      0.955776215    
  -56.5223999      -1.11500299      -20.0000000       8.33065605      0.955776215    
  -55.1657600      -1.76926601      -20.0000000       8.33065605      0.955776215    
  -55.4176407      -3.26747894      -20.0000000       8.33065605      0.955776215    
  -54.2450790      -3.94889998      -20.0000000       8.19716930      0.953328848    
  -55.4176407      -3.26747894      -20.0000000       8.19716930      0.953328848    
  -55.1657600      -1.76926601      -20.0000000       8.19716930      0.953328848    
  -53.8819199      -2.32836604      -20.0000000       8.19716930      0.953328848    
  -52.9834785      -4.46340179      -20.0000000       8.85524178      0.948831141    
  -51.6155815      -4.69134283      -20.0000000       8.85524178      0.948831141    
  -51.8049088      -6.24783087      -20.0000000       8.85524178      0.948831141    
  -53.2955093      -6.05576801      -20.0000000       8.85524178      0.948831141    
  -56.3964119      0.254809886      -20.0000000       8.64484692      0.955552518    
  -56.5223999      -1.11500299      -20.0000000       8.64484692      0.955552518    
  -57.9577713     -0.724482894      -20.0000000       8.64484692      0.955552518    
  -57.9511719      0.779103875      -20.0000000       8.64484692      0.955552518    
  -53.8819199      -2.32836604      -20.0000000       8.13533211      0.950151801    
  -52.7235603      -2.92538095      -20.0000000       8.13533211      0.950151801    
  -52.9834785      -4.46340179      -20.0000000       8.13533211      0.950151801    
  -54.2450790      -3.94889998      -20.0000000       8.13533211      0.950151801    
  -56.5223999      -1.11500299      -20.0000000       8.11581326      0.954791844    
  -56.3964119      0.254809886      -20.0000000       8.11581326      0.954791844    
  -54.8835487     -0.325594515      -20.0000000       8.11581326      0.954791844    
  -55.1657600      -1.76926601      -20.0000000       8.11581326      0.954791844    
  -50.2990494      -6.25000000      -20.0000000       8.69793224      0.944440186    
  -51.8049088      -6.24783087      -20.0000000       8.69793224      0.944440186    
  -51.6155815      -4.69134283      -20.0000000       8.69793224      0.944440186    
  -50.1911316      -4.70199823      -20.0000000       8.69793224      0.944440186    
  -53.8819199      -2.32836604      -20.0000000       7.86162233      0.952464879    
  -55.1657600      -1.76926601      -20.0000000       7.86162233      0.952464879    
  -54.8835487     -0.325594515      -20.0000000       7.86162233      0.952464879    
  -53.3087082     -0.726661325      -20.0000000       7.86162233      0.952464879    
  -52.7235603      -2.92538095      -20.0000000       8.05262280      0.946475506    
  -51.4683685      -3.18431592      -20.0000000       8.05262280      0.946475506    
  -51.6155815      -4.69134283      -20.0000000       8.05262280      0.946475506    
  -52.9834785      -4.46340179      -20.0000000       8.05262280      0.946475506    
  -56.1067696       1.60355306      -20.0000000       8.73710251      0.953540027    
  -56.3964119      0.254809886      -20.0000000       8.73710251      0.953540027    
  -57.9511719      0.779103875      -20.0000000       8.73710251      0.953540027    
  -57.5863686       2.23558092      -20.0000000       8.73710251      0.953540027    
  -56.3964119      0.254809886      -20.0000000       8.12656307      0.953056216    
  -56.1067696       1.60355306      -20.0000000       8.12656307      0.953056216    
  -54.6488190       1.11988902      -20.0000000       8.12656307      0.953056216    
  -54.8835487     -0.325594515      -20.0000000       8.12656307      0.953056216    
  -51.8859215      -1.67511594      -20.0000000       7.71059990      0.949503839    
  -52.7235603      -2.92538095      -20.0000000       7.71059990      0.949503839    
  -53.8819199      -2.32836604      -20.0000000       7.71059990      0.949503839    
  -53.3087082     -0.726661325      -20.0000000       7.71059990      0.949503839    
  -48.7928200      -6.25000000      -20.0000000       8.45638371      0.940054238    
  -50.2990494      -6.25000000      -20.0000000       8.45638371      0.940054238    
  -50.1911316      -4.70199823      -20.0000000       8.45638371      0.940054238    
  -48.7387619      -4.69004917      -20.0000000       8.45638371      0.940054238    
  -50.1911316      -4.70199823      -20.0000000       7.87334967      0.942611873    
  -51.6155815      -4.69134283      -20.0000000       7.87334967      0.942611873    
  -51.4683685      -3.18431592      -20.0000000       7.87334967      0.942611873    
  -50.1564102      -3.12996602      -20.0000000       7.87334967      0.942611873    
  -54.6488190       1.11988902      -20.0000000       7.82033062      0.951488137    
  -53.2043991       1.01675200      -20.0000000       7.82033062      0.951488137    
  -53.3087082     -0.726661325      -20.0000000       7.82033062      0.951488137    
  -54.8835487     -0.325594515      -20.0000000       7.82033062      0.951488137    
  -51.4683685      -3.18431592      -20.0000000       7.68811083      0.946724236    
  -52.7235603      -2.92538095      -20.0000000       7.68811083      0.946724236    
  -51.8859215      -1.67511594      -20.0000000       7.68811083      0.946724236    
  -51.8859215      -1.67511594      -20.0000000       7.68811083      0.946724236    
  -55.6295395       2.91055298      -20.0000000       9.00283813      0.951387644    
  -56.1067696       1.60355306      -20.0000000       9.00283813      0.951387644    
  -57.5863686       2.23558092      -20.0000000       9.00283813      0.951387644    
  -56.8836594       3.56473303      -20.0000000       9.00283813      0.951387644    
  -47.2866096      -6.25000000      -20.0000000       8.15767574      0.935868323    
  -48.7928200      -6.25000000      -20.0000000       8.15767574      0.935868323    
  -48.7387619      -4.69004917      -20.0000000       8.15767574      0.935868323    
  -47.2626686      -4.68801212      -20.0000000       8.15767574      0.935868323    
  -48.7387619      -4.69004917      -20.0000000       7.62693977      0.939077497    
  -50.1911316      -4.70199823      -20.0000000       7.62693977      0.939077497    
  -50.1564102      -3.12996602      -20.0000000       7.62693977      0.939077497    
  -48.7254105      -3.12169194      -20.0000000       7.62693977      0.939077497    
  -50.1564102      -3.12996602      -20.0000000       7.47246265      0.944789290    
  -51.4683685      -3.18431592      -20.0000000       7.47246265      0.944789290    
  -51.8859215      -1.67511594      -20.0000000       7.47246265      0.944789290    
  -50.2854195      -1.59545600      -20.0000000       7.47246265      0.944789290    
  -54.6488190       1.11988902      -20.0000000       8.37170887      0.950743020    
  -56.1067696       1.60355306      -20.0000000       8.37170887      0.950743020    
  -55.6295395       2.91055298      -20.0000000       8.37170887      0.950743020    
  -54.3531990       2.57653904      -20.0000000       8.37170887      0.950743020    
  -51.7686501     -0.191007897      -20.0000000       7.53695345      0.949330926    
  -51.8859215      -1.67511594      -20.0000000       7.53695345      0.949330926    
  -53.3087082     -0.726661325      -20.0000000       7.53695345      0.949330926    
  -53.3087082     -0.726661325      -20.0000000       7.53695345      0.949330926    
  -51.7686501     -0.191007897      -20.0000000       7.62476206      0.950173318    
  -53.3087082     -0.726661325      -20.0000000       7.62476206      0.950173318    
  -53.2043991       1.01675200      -20.0000000       7.62476206      0.950173318    
  -51.7500000       1.29565406      -20.0000000       7.62476206      0.950173318    
  -53.0367393       2.70281792      -20.0000000       8.10779667      0.949872196    
  -53.2043991       1.01675200      -20.0000000       8.10779667      0.949872196    
  -54.6488190       1.11988902      -20.0000000       8.10779667      0.949872196    
  -54.3531990       2.57653904      -20.0000000       8.10779667      0.949872196    
  -45.7804108      -6.25000000      -20.0000000       7.79274082      0.932089627    
  -47.2866096      -6.25000000      -20.0000000       7.79274082      0.932089627    
  -47.2626686      -4.68801212      -20.0000000       7.79274082      0.932089627    
  -45.7679100      -4.68779421      -20.0000000       7.79274082      0.932089627    
  -47.2626686      -4.68801212      -20.0000000       7.34142637      0.936045229    
  -48.7387619      -4.69004917      -20.0000000       7.34142637      0.936045229    
  -48.7254105      -3.12169194      -20.0000000       7.34142637      0.936045229    
  -47.2550507      -3.12222195      -20.0000000       7.34142637      0.936045229    
  -54.5736809       4.04919481      -20.0000000       9.36141777      0.949988484    
  -55.6295395       2.91055298      -20.0000000       9.36141777      0.949988484    
  -56.8836594       3.56473303      -20.0000000       9.36141777      0.949988484    
  -55.8850899       4.68635893      -20.0000000       9.36141777      0.949988484    
  -48.7254105      -3.12169194      -20.0000000       7.22105265      0.942456305    
  -50.1564102      -3.12996602      -20.0000000       7.22105265      0.942456305    
  -50.2854195      -1.59545600      -20.0000000       7.22105265      0.942456305    
  -48.7658615      -1.56390297      -20.0000000       7.22105265      0.942456305    
  -50.2854195      -1.59545600      -20.0000000       7.34000349      0.947981656    
  -51.8859215      -1.67511594      -20.0000000       7.34000349      0.947981656    
  -51.7686501     -0.191007897      -20.0000000       7.34000349      0.947981656    
  -50.2816200      -7.23225027E-02  -20.0000000       7.34000349      0.947981656    
  -55.6295395       2.91055298      -20.0000000       8.76508141      0.949152946    
  -54.5736809       4.04919481      -20.0000000       8.76508141      0.949152946    
  -54.3531990       2.57653904      -20.0000000       8.76508141      0.949152946    
  -54.3531990       2.57653904      -20.0000000       8.76508141      0.949152946    
  -51.6464691       2.90894699      -20.0000000       7.98027515      0.949925303    
  -51.7500000       1.29565406      -20.0000000       7.98027515      0.949925303    
  -53.2043991       1.01675200      -20.0000000       7.98027515      0.949925303    
  -53.0367393       2.70281792      -20.0000000       7.98027515      0.949925303    
  -44.2742119      -6.25000000      -20.0000000       7.36319542      0.929024577    
  -45.7804108      -6.25000000      -20.0000000       7.36319542      0.929024577    
  -45.7679100      -4.68779421      -20.0000000       7.36319542      0.929024577    
  -44.2670212      -4.68766403      -20.0000000       7.36319542      0.929024577    
  -45.7679100      -4.68779421      -20.0000000       7.00172138      0.933653176    
  -47.2626686      -4.68801212      -20.0000000       7.00172138      0.933653176    
  -47.2550507      -3.12222195      -20.0000000       7.00172138      0.933653176    
  -45.7611885      -3.12411094      -20.0000000       7.00172138      0.933653176    
  -51.7500000       1.29565406      -20.0000000       7.44403505      0.950567424    
  -50.2459984       1.47492099      -20.0000000       7.44403505      0.950567424    
  -50.2816200      -7.23225027E-02  -20.0000000       7.44403505      0.950567424    
  -51.7686501     -0.191007897      -20.0000000       7.44403505      0.950567424    
  -47.2550507      -3.12222195      -20.0000000       6.93719721      0.940742671    
  -48.7254105      -3.12169194      -20.0000000       6.93719721      0.940742671    
  -48.7658615      -1.56390297      -20.0000000       6.93719721      0.940742671    
  -47.2643318      -1.55986798      -20.0000000       6.93719721      0.940742671    
  -48.7658615      -1.56390297      -20.0000000       7.08119726      0.947654903    
  -50.2854195      -1.59545600      -20.0000000       7.08119726      0.947654903    
  -50.2816200      -7.23225027E-02  -20.0000000       7.08119726      0.947654903    
  -48.7753716      -1.42937005E-02  -20.0000000       7.08119726      0.947654903    
  -54.5736809       4.04919481      -20.0000000       8.73554134      0.948479533    
  -53.0954399       4.36336088      -20.0000000       8.73554134      0.948479533    
  -53.0367393       2.70281792      -20.0000000       8.73554134      0.948479533    
  -54.3531990       2.57653904      -20.0000000       8.73554134      0.948479533    
  -54.6465797       5.53822613      -20.0000000       9.85238361      0.950197458    
  -54.5736809       4.04919481      -20.0000000       9.85238361      0.950197458    
  -55.8850899       4.68635893      -20.0000000       9.85238361      0.950197458    
  -55.8850899       4.68635893      -20.0000000       9.85238361      0.950197458    
  -44.2670212      -4.68766403      -20.0000000       6.88546991      0.926847279    
  -42.7620697      -4.68767691      -20.0000000       6.88546991      0.926847279    
  -42.7680206      -6.25000000      -20.0000000       6.88546991      0.926847279    
  -44.2742119      -6.25000000      -20.0000000       6.88546991      0.926847279    
  -44.2670212      -4.68766403      -20.0000000       6.60834265      0.931842566    
  -45.7679100      -4.68779421      -20.0000000       6.60834265      0.931842566    
  -45.7611885      -3.12411094      -20.0000000       6.60834265      0.931842566    
  -44.2611694      -3.12488103      -20.0000000       6.60834265      0.931842566    
  -45.7611885      -3.12411094      -20.0000000       6.60747671      0.939426184    
  -47.2550507      -3.12222195      -20.0000000       6.60747671      0.939426184    
  -47.2643318      -1.55986798      -20.0000000       6.60747671      0.939426184    
  -45.7603798      -1.56126106      -20.0000000       6.60747671      0.939426184    
  -50.2459984       1.47492099      -20.0000000       7.83807659      0.951839626    
  -51.7500000       1.29565406      -20.0000000       7.83807659      0.951839626    
  -51.6464691       2.90894699      -20.0000000       7.83807659      0.951839626    
  -50.2011604       3.04989505      -20.0000000       7.83807659      0.951839626    
  -54.6465797       5.53822613      -20.0000000       9.74675560      0.949314177    
  -53.2416306       6.06926107      -20.0000000       9.74675560      0.949314177    
  -53.0954399       4.36336088      -20.0000000       9.74675560      0.949314177    
  -54.5736809       4.04919481      -20.0000000       9.74675560      0.949314177    
  -47.2643318      -1.55986798      -20.0000000       6.78284597      0.947899997    
  -48.7658615      -1.56390297      -20.0000000       6.78284597      0.947899997    
  -48.7753716      -1.42937005E-02  -20.0000000       6.78284597      0.947899997    
  -47.2657204       0.00000000      -20.0000000       6.78284597      0.947899997    
  -48.7753716      -1.42937005E-02  -20.0000000       7.19514608      0.952408433    
  -50.2816200      -7.23225027E-02  -20.0000000       7.19514608      0.952408433    
  -50.2459984       1.47492099      -20.0000000       7.19514608      0.952408433    
  -48.7560692       1.53868604      -20.0000000       7.19514608      0.952408433    
  -51.6464691       2.90894699      -20.0000000       8.67328358      0.949413121    
  -53.0367393       2.70281792      -20.0000000       8.67328358      0.949413121    
  -53.0954399       4.36336088      -20.0000000       8.67328358      0.949413121    
  -51.6648903       4.56408405      -20.0000000       8.67328358      0.949413121    
  -41.2618294      -6.25000000      -20.0000000       6.38275862      0.925290287    
  -42.7680206      -6.25000000      -20.0000000       6.38275862      0.925290287    
  -42.7620697      -4.68767691      -20.0000000       6.38275862      0.925290287    
  -41.2566490      -4.68782711      -20.0000000       6.38275862      0.925290287    
  -44.2611694      -3.12488103      -20.0000000       6.18032074      0.930379868    
  -42.7563400      -3.12513494      -20.0000000       6.18032074      0.930379868    
  -42.7620697      -4.68767691      -20.0000000       6.18032074      0.930379868    
  -44.2670212      -4.68766403      -20.0000000       6.18032074      0.930379868    
  -44.2611694      -3.12488103      -20.0000000       6.23301411      0.938133717    
  -45.7611885      -3.12411094      -20.0000000       6.23301411      0.938133717    
  -45.7603798      -1.56126106      -20.0000000       6.23301411      0.938133717    
  -44.2565308      -1.56226599      -20.0000000       6.23301411      0.938133717    
  -45.7603798      -1.56126106      -20.0000000       6.44244909      0.947933316    
  -47.2643318      -1.55986798      -20.0000000       6.44244909      0.947933316    
  -47.2657204       0.00000000      -20.0000000       6.44244909      0.947933316    
  -45.7582893       0.00000000      -20.0000000       6.44244909      0.947933316    
  -47.2657204       0.00000000      -20.0000000       6.87693644      0.954758048    
  -48.7753716      -1.42937005E-02  -20.0000000       6.87693644      0.954758048    
  -48.7560692       1.53868604      -20.0000000       6.87693644      0.954758048    
  -47.2535896       1.55706894      -20.0000000       6.87693644      0.954758048    
  -48.7560692       1.53868604      -20.0000000       7.59395599      0.955367684    
  -50.2459984       1.47492099      -20.0000000       7.59395599      0.955367684    
  -50.2011604       3.04989505      -20.0000000       7.59395599      0.955367684    
  -48.7281189       3.10503101      -20.0000000       7.59395599      0.955367684    
  -50.2011604       3.04989505      -20.0000000       8.55172157      0.952314734    
  -51.6464691       2.90894699      -20.0000000       8.55172157      0.952314734    
  -51.6648903       4.56408405      -20.0000000       8.55172157      0.952314734    
  -50.2067184       4.64797401      -20.0000000       8.55172157      0.952314734    
  -51.6648903       4.56408405      -20.0000000       9.78865337      0.950464964    
  -53.0954399       4.36336088      -20.0000000       9.78865337      0.950464964    
  -53.2416306       6.06926107      -20.0000000       9.78865337      0.950464964    
  -51.7500000       6.25000000      -20.0000000       9.78865337      0.950464964    
  -39.7556496      -6.25000000      -20.0000000       5.88054657      0.923759818    
  -41.2618294      -6.25000000      -20.0000000       5.88054657      0.923759818    
  -41.2566490      -4.68782711      -20.0000000       5.88054657      0.923759818    
  -39.7507591      -4.68851089      -20.0000000       5.88054657      0.923759818    
  -41.2566490      -4.68782711      -20.0000000       5.74230671      0.928814709    
  -42.7620697      -4.68767691      -20.0000000       5.74230671      0.928814709    
  -42.7563400      -3.12513494      -20.0000000       5.74230671      0.928814709    
  -41.2511406      -3.12541890      -20.0000000       5.74230671      0.928814709    
  -44.2565308      -1.56226599      -20.0000000       5.83409595      0.936490834    
  -42.7509499      -1.56253600      -20.0000000       5.83409595      0.936490834    
  -42.7563400      -3.12513494      -20.0000000       5.83409595      0.936490834    
  -44.2611694      -3.12488103      -20.0000000       5.83409595      0.936490834    
  -44.2565308      -1.56226599      -20.0000000       6.06841230      0.947087824    
  -45.7603798      -1.56126106      -20.0000000       6.06841230      0.947087824    
  -45.7582893       0.00000000      -20.0000000       6.06841230      0.947087824    
  -44.2515602       0.00000000      -20.0000000       6.06841230      0.947087824    
  -45.7582893       0.00000000      -20.0000000       6.50592899      0.956344426    
  -47.2657204       0.00000000      -20.0000000       6.50592899      0.956344426    
  -47.2535896       1.55706894      -20.0000000       6.50592899      0.956344426    
  -45.7509003       1.56100297      -20.0000000       6.50592899      0.956344426    
  -47.2535896       1.55706894      -20.0000000       7.24483156      0.959280252    
  -48.7560692       1.53868604      -20.0000000       7.24483156      0.959280252    
  -48.7281189       3.10503101      -20.0000000       7.24483156      0.959280252    
  -47.2370110       3.11982203      -20.0000000       7.24483156      0.959280252    
  -48.7281189       3.10503101      -20.0000000       8.29876900      0.956662893    
  -50.2011604       3.04989505      -20.0000000       8.29876900      0.956662893    
  -50.2067184       4.64797401      -20.0000000       8.29876900      0.956662893    
  -48.7241211       4.67746210      -20.0000000       8.29876900      0.956662893    
  -50.2067184       4.64797401      -20.0000000       9.69630718      0.953612626    
  -51.6648903       4.56408405      -20.0000000       9.69630718      0.953612626    
  -51.7500000       6.25000000      -20.0000000       9.69630718      0.953612626    
  -50.2455711       6.25000000      -20.0000000       9.69630718      0.953612626    
  -38.2494698      -6.25000000      -20.0000000       5.40042496      0.921856999    
  -39.7556496      -6.25000000      -20.0000000       5.40042496      0.921856999    
  -39.7507591      -4.68851089      -20.0000000       5.40042496      0.921856999    
  -38.2446404      -4.68936491      -20.0000000       5.40042496      0.921856999    
  -39.7507591      -4.68851089      -20.0000000       5.31649637      0.926712573    
  -41.2566490      -4.68782711      -20.0000000       5.31649637      0.926712573    
  -41.2511406      -3.12541890      -20.0000000       5.31649637      0.926712573    
  -39.7453995      -3.12673903      -20.0000000       5.31649637      0.926712573    
  -41.2511406      -3.12541890      -20.0000000       5.43217897      0.934065878    
  -42.7563400      -3.12513494      -20.0000000       5.43217897      0.934065878    
  -42.7509499      -1.56253600      -20.0000000       5.43217897      0.934065878    
  -41.2455711      -1.56282198      -20.0000000       5.43217897      0.934065878    
  -44.2515602       0.00000000      -20.0000000       5.68056679      0.944845617    
  -42.7457504       0.00000000      -20.0000000       5.68056679      0.944845617    
  -42.7509499      -1.56253600      -20.0000000       5.68056679      0.944845617    
  -44.2565308      -1.56226599      -20.0000000       5.68056679      0.944845617    
  -44.2515602       0.00000000      -20.0000000       6.10835075      0.956091106    
  -45.7582893       0.00000000      -20.0000000       6.10835075      0.956091106    
  -45.7509003       1.56100297      -20.0000000       6.10835075      0.956091106    
  -44.2452011       1.56199801      -20.0000000       6.10835075      0.956091106    
  -45.7509003       1.56100297      -20.0000000       6.82659006      0.962129354    
  -47.2535896       1.55706894      -20.0000000       6.82659006      0.962129354    
  -47.2370110       3.11982203      -20.0000000       6.82659006      0.962129354    
  -45.7402802       3.12332392      -20.0000000       6.82659006      0.962129354    
  -47.2370110       3.11982203      -20.0000000       7.91507530      0.961280406    
  -48.7281189       3.10503101      -20.0000000       7.91507530      0.961280406    
  -48.7241211       4.67746210      -20.0000000       7.91507530      0.961280406    
  -47.2300911       4.68496799      -20.0000000       7.91507530      0.961280406    
  -48.7241211       4.67746210      -20.0000000       9.45381737      0.958100379    
  -50.2067184       4.64797401      -20.0000000       9.45381737      0.958100379    
  -50.2455711       6.25000000      -20.0000000       9.45381737      0.958100379    
  -48.7411499       6.25000000      -20.0000000       9.45381737      0.958100379    
  -36.7432899      -6.25000000      -20.0000000       4.94946480      0.919561982    
  -38.2494698      -6.25000000      -20.0000000       4.94946480      0.919561982    
  -38.2446404      -4.68936491      -20.0000000       4.94946480      0.919561982    
  -36.7384796      -4.68897390      -20.0000000       4.94946480      0.919561982    
  -38.2446404      -4.68936491      -20.0000000       4.91518021      0.923862398    
  -39.7507591      -4.68851089      -20.0000000       4.91518021      0.923862398    
  -39.7453995      -3.12673903      -20.0000000       4.91518021      0.923862398    
  -38.2396507      -3.12933803      -20.0000000       4.91518021      0.923862398    
  -39.7453995      -3.12673903      -20.0000000       5.04645681      0.930674016    
  -41.2511406      -3.12541890      -20.0000000       5.04645681      0.930674016    
  -41.2455711      -1.56282198      -20.0000000       5.04645681      0.930674016    
  -39.7399902      -1.56351995      -20.0000000       5.04645681      0.930674016    
  -41.2455711      -1.56282198      -20.0000000       5.29843330      0.941025436    
  -42.7509499      -1.56253600      -20.0000000       5.29843330      0.941025436    
  -42.7457504       0.00000000      -20.0000000       5.29843330      0.941025436    
  -41.2401695       0.00000000      -20.0000000       5.29843330      0.941025436    
  -44.2452011       1.56199801      -20.0000000       5.70934153      0.953380406    
  -42.7402611       1.56238496      -20.0000000       5.70934153      0.953380406    
  -42.7457504       0.00000000      -20.0000000       5.70934153      0.953380406    
  -44.2515602       0.00000000      -20.0000000       5.70934153      0.953380406    
  -44.2452011       1.56199801      -20.0000000       6.38398695      0.962539315    
  -45.7509003       1.56100297      -20.0000000       6.38398695      0.962539315    
  -45.7402802       3.12332392      -20.0000000       6.38398695      0.962539315    
  -44.2380295       3.12447906      -20.0000000       6.38398695      0.962539315    
  -45.7402802       3.12332392      -20.0000000       7.44725609      0.964699030    
  -47.2370110       3.11982203      -20.0000000       7.44725609      0.964699030    
  -47.2300911       4.68496799      -20.0000000       7.44725609      0.964699030    
  -45.7329903       4.68700409      -20.0000000       7.44725609      0.964699030    
  -47.2300911       4.68496799      -20.0000000       9.07522869      0.962668419    
  -48.7241211       4.67746210      -20.0000000       9.07522869      0.962668419    
  -48.7411499       6.25000000      -20.0000000       9.07522869      0.962668419    
  -47.2367287       6.25000000      -20.0000000       9.07522869      0.962668419    
  -35.2371101      -6.25000000      -20.0000000       4.52102947      0.917049229    
  -36.7432899      -6.25000000      -20.0000000       4.52102947      0.917049229    
  -36.7384796      -4.68897390      -20.0000000       4.52102947      0.917049229    
  -35.2325211      -4.68835878      -20.0000000       4.52102947      0.917049229    
  -36.7384796      -4.68897390      -20.0000000       4.54112959      0.920327663    
  -38.2446404      -4.68936491      -20.0000000       4.54112959      0.920327663    
  -38.2396507      -3.12933803      -20.0000000       4.54112959      0.920327663    
  -36.7339096      -3.12783909      -20.0000000       4.54112959      0.920327663    
  -38.2396507      -3.12933803      -20.0000000       4.68573046      0.926299274    
  -39.7453995      -3.12673903      -20.0000000       4.68573046      0.926299274    
  -39.7399902      -1.56351995      -20.0000000       4.68573046      0.926299274    
  -38.2346497      -1.56438303      -20.0000000       4.68573046      0.926299274    
  -39.7399902      -1.56351995      -20.0000000       4.93659210      0.935842991    
  -41.2455711      -1.56282198      -20.0000000       4.93659210      0.935842991    
  -41.2401695       0.00000000      -20.0000000       4.93659210      0.935842991    