 VARIABLES="X" "Y" "Z" "abs(p) (Pa)" "angle(p) (rad)"
ZONE N=   3650,E =    3624, F=FEPOINT, ET=QUADRILATERAL
  -56.5164909      -2.47323704      -20.0000000       349.013123      0.752113700    
  -55.4176407      -3.26747894      -20.0000000       349.013123      0.752113700    
  -55.9264717      -4.64953518      -20.0000000       349.013123      0.752113700    
  -56.9148483      -3.51935697      -20.0000000       349.013123      0.752113700    
  -56.9148483      -3.51935697      -20.0000000       382.799225      0.883701384    
  -57.6058807      -2.18402195      -20.0000000       382.799225      0.883701384    
  -56.5164909      -2.47323704      -20.0000000       382.799225      0.883701384    
  -56.5164909      -2.47323704      -20.0000000       382.799225      0.883701384    
  -54.6953812      -5.51239681      -20.0000000       360.936371      0.647844791    
  -55.9264717      -4.64953518      -20.0000000       360.936371      0.647844791    
  -55.4176407      -3.26747894      -20.0000000       360.936371      0.647844791    
  -54.2450790      -3.94889998      -20.0000000       360.936371      0.647844791    
  -54.2450790      -3.94889998      -20.0000000       395.349030      0.562869608    
  -52.9834785      -4.46340179      -20.0000000       395.349030      0.562869608    
  -53.2955093      -6.05576801      -20.0000000       395.349030      0.562869608    
  -54.6953812      -5.51239681      -20.0000000       395.349030      0.562869608    
  -56.5223999      -1.11500299      -20.0000000       321.789185      0.761891782    
  -56.5164909      -2.47323704      -20.0000000       321.789185      0.761891782    
  -57.6058807      -2.18402195      -20.0000000       321.789185      0.761891782    
  -57.9577713     -0.724482894      -20.0000000       321.789185      0.761891782    
  -56.5164909      -2.47323704      -20.0000000       274.205109      0.271982908    
  -56.5223999      -1.11500299      -20.0000000       274.205109      0.271982908    
  -55.1657600      -1.76926601      -20.0000000       274.205109      0.271982908    
  -55.4176407      -3.26747894      -20.0000000       274.205109      0.271982908    
  -54.2450790      -3.94889998      -20.0000000       324.144165       4.26549539E-02
  -55.4176407      -3.26747894      -20.0000000       324.144165       4.26549539E-02
  -55.1657600      -1.76926601      -20.0000000       324.144165       4.26549539E-02
  -53.8819199      -2.32836604      -20.0000000       324.144165       4.26549539E-02
  -52.9834785      -4.46340179      -20.0000000       445.593842      0.475032330    
  -51.6155815      -4.69134283      -20.0000000       445.593842      0.475032330    
  -51.8049088      -6.24783087      -20.0000000       445.593842      0.475032330    
  -53.2955093      -6.05576801      -20.0000000       445.593842      0.475032330    
  -56.3964119      0.254809886      -20.0000000       297.616364      0.685989261    
  -56.5223999      -1.11500299      -20.0000000       297.616364      0.685989261    
  -57.9577713     -0.724482894      -20.0000000       297.616364      0.685989261    
  -57.9511719      0.779103875      -20.0000000       297.616364      0.685989261    
  -53.8819199      -2.32836604      -20.0000000       391.002533      -1.71673298E-02
  -52.7235603      -2.92538095      -20.0000000       391.002533      -1.71673298E-02
  -52.9834785      -4.46340179      -20.0000000       391.002533      -1.71673298E-02
  -54.2450790      -3.94889998      -20.0000000       391.002533      -1.71673298E-02
  -56.5223999      -1.11500299      -20.0000000       275.310516       2.00615171E-02
  -56.3964119      0.254809886      -20.0000000       275.310516       2.00615171E-02
  -54.8835487     -0.325594515      -20.0000000       275.310516       2.00615171E-02
  -55.1657600      -1.76926601      -20.0000000       275.310516       2.00615171E-02
  -50.2990494      -6.25000000      -20.0000000       513.151855      0.383516103    
  -51.8049088      -6.24783087      -20.0000000       513.151855      0.383516103    
  -51.6155815      -4.69134283      -20.0000000       513.151855      0.383516103    
  -50.1911316      -4.70199823      -20.0000000       513.151855      0.383516103    
  -53.8819199      -2.32836604      -20.0000000       369.401154     -0.227074802    
  -55.1657600      -1.76926601      -20.0000000       369.401154     -0.227074802    
  -54.8835487     -0.325594515      -20.0000000       369.401154     -0.227074802    
  -53.3087082     -0.726661325      -20.0000000       369.401154     -0.227074802    
  -52.7235603      -2.92538095      -20.0000000       468.138519      -2.58560069E-02
  -51.4683685      -3.18431592      -20.0000000       468.138519      -2.58560069E-02
  -51.6155815      -4.69134283      -20.0000000       468.138519      -2.58560069E-02
  -52.9834785      -4.46340179      -20.0000000       468.138519      -2.58560069E-02
  -56.1067696       1.60355306      -20.0000000       297.120728      0.658766747    
  -56.3964119      0.254809886      -20.0000000       297.120728      0.658766747    
  -57.9511719      0.779103875      -20.0000000       297.120728      0.658766747    
  -57.5863686       2.23558092      -20.0000000       297.120728      0.658766747    
  -56.3964119      0.254809886      -20.0000000       288.063171      -5.21612801E-02
  -56.1067696       1.60355306      -20.0000000       288.063171      -5.21612801E-02
  -54.6488190       1.11988902      -20.0000000       288.063171      -5.21612801E-02
  -54.8835487     -0.325594515      -20.0000000       288.063171      -5.21612801E-02
  -51.8859215      -1.67511594      -20.0000000       464.566956     -0.254087806    
  -52.7235603      -2.92538095      -20.0000000       464.566956     -0.254087806    
  -53.8819199      -2.32836604      -20.0000000       464.566956     -0.254087806    
  -53.3087082     -0.726661325      -20.0000000       464.566956     -0.254087806    
  -48.7928200      -6.25000000      -20.0000000       596.749878      0.321791410    
  -50.2990494      -6.25000000      -20.0000000       596.749878      0.321791410    
  -50.1911316      -4.70199823      -20.0000000       596.749878      0.321791410    
  -48.7387619      -4.69004917      -20.0000000       596.749878      0.321791410    
  -50.1911316      -4.70199823      -20.0000000       560.134277      -3.25998962E-02
  -51.6155815      -4.69134283      -20.0000000       560.134277      -3.25998962E-02
  -51.4683685      -3.18431592      -20.0000000       560.134277      -3.25998962E-02
  -50.1564102      -3.12996602      -20.0000000       560.134277      -3.25998962E-02
  -54.6488190       1.11988902      -20.0000000       400.027740     -0.289253891    
  -53.2043991       1.01675200      -20.0000000       400.027740     -0.289253891    
  -53.3087082     -0.726661325      -20.0000000       400.027740     -0.289253891    
  -54.8835487     -0.325594515      -20.0000000       400.027740     -0.289253891    
  -51.4683685      -3.18431592      -20.0000000       518.640503     -0.201325104    
  -52.7235603      -2.92538095      -20.0000000       518.640503     -0.201325104    
  -51.8859215      -1.67511594      -20.0000000       518.640503     -0.201325104    
  -51.8859215      -1.67511594      -20.0000000       518.640503     -0.201325104    
  -55.6295395       2.91055298      -20.0000000       316.705811      0.676837683    
  -56.1067696       1.60355306      -20.0000000       316.705811      0.676837683    
  -57.5863686       2.23558092      -20.0000000       316.705811      0.676837683    
  -56.8836594       3.56473303      -20.0000000       316.705811      0.676837683    
  -47.2866096      -6.25000000      -20.0000000       688.048218      0.296392918    
  -48.7928200      -6.25000000      -20.0000000       688.048218      0.296392918    
  -48.7387619      -4.69004917      -20.0000000       688.048218      0.296392918    
  -47.2626686      -4.68801212      -20.0000000       688.048218      0.296392918    
  -48.7387619      -4.69004917      -20.0000000       661.124146      -2.28439569E-02
  -50.1911316      -4.70199823      -20.0000000       661.124146      -2.28439569E-02
  -50.1564102      -3.12996602      -20.0000000       661.124146      -2.28439569E-02
  -48.7254105      -3.12169194      -20.0000000       661.124146      -2.28439569E-02
  -50.1564102      -3.12996602      -20.0000000       606.295044     -0.206224412    
  -51.4683685      -3.18431592      -20.0000000       606.295044     -0.206224412    
  -51.8859215      -1.67511594      -20.0000000       606.295044     -0.206224412    
  -50.2854195      -1.59545600      -20.0000000       606.295044     -0.206224412    
  -54.6488190       1.11988902      -20.0000000       300.792664       1.47679113E-02
  -56.1067696       1.60355306      -20.0000000       300.792664       1.47679113E-02
  -55.6295395       2.91055298      -20.0000000       300.792664       1.47679113E-02
  -54.3531990       2.57653904      -20.0000000       300.792664       1.47679113E-02
  -51.7686501     -0.191007897      -20.0000000       529.477173     -0.304860711    
  -51.8859215      -1.67511594      -20.0000000       529.477173     -0.304860711    
  -53.3087082     -0.726661325      -20.0000000       529.477173     -0.304860711    
  -53.3087082     -0.726661325      -20.0000000       529.477173     -0.304860711    
  -51.7686501     -0.191007897      -20.0000000       516.743591     -0.317158163    
  -53.3087082     -0.726661325      -20.0000000       516.743591     -0.317158163    
  -53.2043991       1.01675200      -20.0000000       516.743591     -0.317158163    
  -51.7500000       1.29565406      -20.0000000       516.743591     -0.317158163    
  -53.0367393       2.70281792      -20.0000000       399.282440     -0.221177652    
  -53.2043991       1.01675200      -20.0000000       399.282440     -0.221177652    
  -54.6488190       1.11988902      -20.0000000       399.282440     -0.221177652    
  -54.3531990       2.57653904      -20.0000000       399.282440     -0.221177652    
  -45.7804108      -6.25000000      -20.0000000       781.540405      0.291699588    
  -47.2866096      -6.25000000      -20.0000000       781.540405      0.291699588    
  -47.2626686      -4.68801212      -20.0000000       781.540405      0.291699588    
  -45.7679100      -4.68779421      -20.0000000       781.540405      0.291699588    
  -47.2626686      -4.68801212      -20.0000000       764.143127       1.03681842E-02
  -48.7387619      -4.69004917      -20.0000000       764.143127       1.03681842E-02
  -48.7254105      -3.12169194      -20.0000000       764.143127       1.03681842E-02
  -47.2550507      -3.12222195      -20.0000000       764.143127       1.03681842E-02
  -54.5736809       4.04919481      -20.0000000       345.447021      0.682785928    
  -55.6295395       2.91055298      -20.0000000       345.447021      0.682785928    
  -56.8836594       3.56473303      -20.0000000       345.447021      0.682785928    
  -55.8850899       4.68635893      -20.0000000       345.447021      0.682785928    
  -48.7254105      -3.12169194      -20.0000000       715.637329     -0.163381413    
  -50.1564102      -3.12996602      -20.0000000       715.637329     -0.163381413    
  -50.2854195      -1.59545600      -20.0000000       715.637329     -0.163381413    
  -48.7658615      -1.56390297      -20.0000000       715.637329     -0.163381413    
  -50.2854195      -1.59545600      -20.0000000       627.348511     -0.274885118    
  -51.8859215      -1.67511594      -20.0000000       627.348511     -0.274885118    
  -51.7686501     -0.191007897      -20.0000000       627.348511     -0.274885118    
  -50.2816200      -7.23225027E-02  -20.0000000       627.348511     -0.274885118    
  -55.6295395       2.91055298      -20.0000000       314.418182      0.175584659    
  -54.5736809       4.04919481      -20.0000000       314.418182      0.175584659    
  -54.3531990       2.57653904      -20.0000000       314.418182      0.175584659    
  -54.3531990       2.57653904      -20.0000000       314.418182      0.175584659    
  -51.6464691       2.90894699      -20.0000000       503.928650     -0.252468437    
  -51.7500000       1.29565406      -20.0000000       503.928650     -0.252468437    
  -53.2043991       1.01675200      -20.0000000       503.928650     -0.252468437    
  -53.0367393       2.70281792      -20.0000000       503.928650     -0.252468437    
  -44.2742119      -6.25000000      -20.0000000       873.857544      0.298245013    
  -45.7804108      -6.25000000      -20.0000000       873.857544      0.298245013    
  -45.7679100      -4.68779421      -20.0000000       873.857544      0.298245013    
  -44.2670212      -4.68766403      -20.0000000       873.857544      0.298245013    
  -45.7679100      -4.68779421      -20.0000000       865.866333       5.31005822E-02
  -47.2626686      -4.68801212      -20.0000000       865.866333       5.31005822E-02
  -47.2550507      -3.12222195      -20.0000000       865.866333       5.31005822E-02
  -45.7611885      -3.12411094      -20.0000000       865.866333       5.31005822E-02
  -51.7500000       1.29565406      -20.0000000       632.927002     -0.278971761    
  -50.2459984       1.47492099      -20.0000000       632.927002     -0.278971761    
  -50.2816200      -7.23225027E-02  -20.0000000       632.927002     -0.278971761    
  -51.7686501     -0.191007897      -20.0000000       632.927002     -0.278971761    
  -47.2550507      -3.12222195      -20.0000000       821.715698     -0.107023939    
  -48.7254105      -3.12169194      -20.0000000       821.715698     -0.107023939    
  -48.7658615      -1.56390297      -20.0000000       821.715698     -0.107023939    
  -47.2643318      -1.55986798      -20.0000000       821.715698     -0.107023939    
  -48.7658615      -1.56390297      -20.0000000       741.757935     -0.219335675    
  -50.2854195      -1.59545600      -20.0000000       741.757935     -0.219335675    
  -50.2816200      -7.23225027E-02  -20.0000000       741.757935     -0.219335675    
  -48.7753716      -1.42937005E-02  -20.0000000       741.757935     -0.219335675    
  -54.5736809       4.04919481      -20.0000000       372.289886       2.18098499E-02
  -53.0954399       4.36336088      -20.0000000       372.289886       2.18098499E-02
  -53.0367393       2.70281792      -20.0000000       372.289886       2.18098499E-02
  -54.3531990       2.57653904      -20.0000000       372.289886       2.18098499E-02
  -54.6465797       5.53822613      -20.0000000       403.618652      0.785741210    
  -54.5736809       4.04919481      -20.0000000       403.618652      0.785741210    
  -55.8850899       4.68635893      -20.0000000       403.618652      0.785741210    
  -55.8850899       4.68635893      -20.0000000       403.618652      0.785741210    
  -44.2670212      -4.68766403      -20.0000000       962.322021      0.311224163    
  -42.7620697      -4.68767691      -20.0000000       962.322021      0.311224163    
  -42.7680206      -6.25000000      -20.0000000       962.322021      0.311224163    
  -44.2742119      -6.25000000      -20.0000000       962.322021      0.311224163    
  -44.2670212      -4.68766403      -20.0000000       964.279114       9.91760418E-02
  -45.7679100      -4.68779421      -20.0000000       964.279114       9.91760418E-02
  -45.7611885      -3.12411094      -20.0000000       964.279114       9.91760418E-02
  -44.2611694      -3.12488103      -20.0000000       964.279114       9.91760418E-02
  -45.7611885      -3.12411094      -20.0000000       924.424500      -4.61415909E-02
  -47.2550507      -3.12222195      -20.0000000       924.424500      -4.61415909E-02
  -47.2643318      -1.55986798      -20.0000000       924.424500      -4.61415909E-02
  -45.7603798      -1.56126106      -20.0000000       924.424500      -4.61415909E-02
  -50.2459984       1.47492099      -20.0000000       610.165955     -0.219632566    
  -51.7500000       1.29565406      -20.0000000       610.165955     -0.219632566    
  -51.6464691       2.90894699      -20.0000000       610.165955     -0.219632566    
  -50.2011604       3.04989505      -20.0000000       610.165955     -0.219632566    
  -54.6465797       5.53822613      -20.0000000       394.244080      0.573066175    
  -53.2416306       6.06926107      -20.0000000       394.244080      0.573066175    
  -53.0954399       4.36336088      -20.0000000       394.244080      0.573066175    
  -54.5736809       4.04919481      -20.0000000       394.244080      0.573066175    
  -47.2643318      -1.55986798      -20.0000000       849.938904     -0.154011071    
  -48.7658615      -1.56390297      -20.0000000       849.938904     -0.154011071    
  -48.7753716      -1.42937005E-02  -20.0000000       849.938904     -0.154011071    
  -47.2657204       0.00000000      -20.0000000       849.938904     -0.154011071    
  -48.7753716      -1.42937005E-02  -20.0000000       743.218384     -0.220349237    
  -50.2816200      -7.23225027E-02  -20.0000000       743.218384     -0.220349237    
  -50.2459984       1.47492099      -20.0000000       743.218384     -0.220349237    
  -48.7560692       1.53868604      -20.0000000       743.218384     -0.220349237    
  -51.6464691       2.90894699      -20.0000000       462.211273      -5.45921288E-02
  -53.0367393       2.70281792      -20.0000000       462.211273      -5.45921288E-02
  -53.0954399       4.36336088      -20.0000000       462.211273      -5.45921288E-02
  -51.6648903       4.56408405      -20.0000000       462.211273      -5.45921288E-02
  -41.2618294      -6.25000000      -20.0000000       1044.87329      0.328024775    
  -42.7680206      -6.25000000      -20.0000000       1044.87329      0.328024775    
  -42.7620697      -4.68767691      -20.0000000       1044.87329      0.328024775    
  -41.2566490      -4.68782711      -20.0000000       1044.87329      0.328024775    
  -44.2611694      -3.12488103      -20.0000000       1057.31628      0.145883232    
  -42.7563400      -3.12513494      -20.0000000       1057.31628      0.145883232    
  -42.7620697      -4.68767691      -20.0000000       1057.31628      0.145883232    
  -44.2670212      -4.68766403      -20.0000000       1057.31628      0.145883232    
  -44.2611694      -3.12488103      -20.0000000       1022.80115       1.51721872E-02
  -45.7611885      -3.12411094      -20.0000000       1022.80115       1.51721872E-02
  -45.7603798      -1.56126106      -20.0000000       1022.80115       1.51721872E-02
  -44.2565308      -1.56226599      -20.0000000       1022.80115       1.51721872E-02
  -45.7603798      -1.56126106      -20.0000000       953.218018      -8.61802474E-02
  -47.2643318      -1.55986798      -20.0000000       953.218018      -8.61802474E-02
  -47.2657204       0.00000000      -20.0000000       953.218018      -8.61802474E-02
  -45.7582893       0.00000000      -20.0000000       953.218018      -8.61802474E-02
  -47.2657204       0.00000000      -20.0000000       850.347900     -0.154079050    
  -48.7753716      -1.42937005E-02  -20.0000000       850.347900     -0.154079050    
  -48.7560692       1.53868604      -20.0000000       850.347900     -0.154079050    
  -47.2535896       1.55706894      -20.0000000       850.347900     -0.154079050    
  -48.7560692       1.53868604      -20.0000000       716.801636     -0.166586414    
  -50.2459984       1.47492099      -20.0000000       716.801636     -0.166586414    
  -50.2011604       3.04989505      -20.0000000       716.801636     -0.166586414    
  -48.7281189       3.10503101      -20.0000000       716.801636     -0.166586414    
  -50.2011604       3.04989505      -20.0000000       559.433655      -5.51154353E-02
  -51.6464691       2.90894699      -20.0000000       559.433655      -5.51154353E-02
  -51.6648903       4.56408405      -20.0000000       559.433655      -5.51154353E-02
  -50.2067184       4.64797401      -20.0000000       559.433655      -5.51154353E-02
  -51.6648903       4.56408405      -20.0000000       442.467926      0.452162087    
  -53.0954399       4.36336088      -20.0000000       442.467926      0.452162087    
  -53.2416306       6.06926107      -20.0000000       442.467926      0.452162087    
  -51.7500000       6.25000000      -20.0000000       442.467926      0.452162087    
  -39.7556496      -6.25000000      -20.0000000       1119.68298      0.346975178    
  -41.2618294      -6.25000000      -20.0000000       1119.68298      0.346975178    
  -41.2566490      -4.68782711      -20.0000000       1119.68298      0.346975178    
  -39.7507591      -4.68851089      -20.0000000       1119.68298      0.346975178    
  -41.2566490      -4.68782711      -20.0000000       1143.20203      0.192080006    
  -42.7620697      -4.68767691      -20.0000000       1143.20203      0.192080006    
  -42.7563400      -3.12513494      -20.0000000       1143.20203      0.192080006    
  -41.2511406      -3.12541890      -20.0000000       1143.20203      0.192080006    
  -44.2565308      -1.56226599      -20.0000000       1115.23035       7.52099305E-02
  -42.7509499      -1.56253600      -20.0000000       1115.23035       7.52099305E-02
  -42.7563400      -3.12513494      -20.0000000       1115.23035       7.52099305E-02
  -44.2611694      -3.12488103      -20.0000000       1115.23035       7.52099305E-02
  -44.2565308      -1.56226599      -20.0000000       1051.30090      -1.90052222E-02
  -45.7603798      -1.56126106      -20.0000000       1051.30090      -1.90052222E-02
  -45.7582893       0.00000000      -20.0000000       1051.30090      -1.90052222E-02
  -44.2515602       0.00000000      -20.0000000       1051.30090      -1.90052222E-02
  -45.7582893       0.00000000      -20.0000000       953.526123      -8.59687924E-02
  -47.2657204       0.00000000      -20.0000000       953.526123      -8.59687924E-02
  -47.2535896       1.55706894      -20.0000000       953.526123      -8.59687924E-02
  -45.7509003       1.56100297      -20.0000000       953.526123      -8.59687924E-02
  -47.2535896       1.55706894      -20.0000000       822.355469     -0.107159749    
  -48.7560692       1.53868604      -20.0000000       822.355469     -0.107159749    
  -48.7281189       3.10503101      -20.0000000       822.355469     -0.107159749    
  -47.2370110       3.11982203      -20.0000000       822.355469     -0.107159749    
  -48.7281189       3.10503101      -20.0000000       661.528320      -2.83655059E-02
  -50.2011604       3.04989505      -20.0000000       661.528320      -2.83655059E-02
  -50.2067184       4.64797401      -20.0000000       661.528320      -2.83655059E-02
  -48.7241211       4.67746210      -20.0000000       661.528320      -2.83655059E-02
  -50.2067184       4.64797401      -20.0000000       512.618713      0.365351051    
  -51.6648903       4.56408405      -20.0000000       512.618713      0.365351051    
  -51.7500000       6.25000000      -20.0000000       512.618713      0.365351051    
  -50.2455711       6.25000000      -20.0000000       512.618713      0.365351051    
  -38.2494698      -6.25000000      -20.0000000       1185.13611      0.367242664    
  -39.7556496      -6.25000000      -20.0000000       1185.13611      0.367242664    
  -39.7507591      -4.68851089      -20.0000000       1185.13611      0.367242664    
  -38.2446404      -4.68936491      -20.0000000       1185.13611      0.367242664    
  -39.7507591      -4.68851089      -20.0000000       1220.28210      0.237334475    
  -41.2566490      -4.68782711      -20.0000000       1220.28210      0.237334475    
  -41.2511406      -3.12541890      -20.0000000       1220.28210      0.237334475    
  -39.7453995      -3.12673903      -20.0000000       1220.28210      0.237334475    
  -41.2511406      -3.12541890      -20.0000000       1200.33252      0.133310571    
  -42.7563400      -3.12513494      -20.0000000       1200.33252      0.133310571    
  -42.7509499      -1.56253600      -20.0000000       1200.33252      0.133310571    
  -41.2455711      -1.56282198      -20.0000000       1200.33252      0.133310571    
  -44.2515602       0.00000000      -20.0000000       1143.12427       4.61842231E-02
  -42.7457504       0.00000000      -20.0000000       1143.12427       4.61842231E-02
  -42.7509499      -1.56253600      -20.0000000       1143.12427       4.61842231E-02
  -44.2565308      -1.56226599      -20.0000000       1143.12427       4.61842231E-02
  -44.2515602       0.00000000      -20.0000000       1051.59448      -1.87945329E-02
  -45.7582893       0.00000000      -20.0000000       1051.59448      -1.87945329E-02
  -45.7509003       1.56100297      -20.0000000       1051.59448      -1.87945329E-02
  -44.2452011       1.56199801      -20.0000000       1051.59448      -1.87945329E-02
  -45.7509003       1.56100297      -20.0000000       925.233704      -4.55156490E-02
  -47.2535896       1.55706894      -20.0000000       925.233704      -4.55156490E-02
  -47.2370110       3.11982203      -20.0000000       925.233704      -4.55156490E-02
  -45.7402802       3.12332392      -20.0000000       925.233704      -4.55156490E-02
  -47.2370110       3.11982203      -20.0000000       765.247070       9.92245693E-03
  -48.7281189       3.10503101      -20.0000000       765.247070       9.92245693E-03
  -48.7241211       4.67746210      -20.0000000       765.247070       9.92245693E-03
  -47.2300911       4.68496799      -20.0000000       765.247070       9.92245693E-03
  -48.7241211       4.67746210      -20.0000000       598.035278      0.315453500    
  -50.2067184       4.64797401      -20.0000000       598.035278      0.315453500    
  -50.2455711       6.25000000      -20.0000000       598.035278      0.315453500    
  -48.7411499       6.25000000      -20.0000000       598.035278      0.315453500    
  -36.7432899      -6.25000000      -20.0000000       1239.79004      0.388339698    
  -38.2494698      -6.25000000      -20.0000000       1239.79004      0.388339698    
  -38.2446404      -4.68936491      -20.0000000       1239.79004      0.388339698    
  -36.7384796      -4.68897390      -20.0000000       1239.79004      0.388339698    
  -38.2446404      -4.68936491      -20.0000000       1287.15942      0.281548291    
  -39.7507591      -4.68851089      -20.0000000       1287.15942      0.281548291    
  -39.7453995      -3.12673903      -20.0000000       1287.15942      0.281548291    
  -38.2396507      -3.12933803      -20.0000000       1287.15942      0.281548291    
  -39.7453995      -3.12673903      -20.0000000       1276.46277      0.189430088    
  -41.2511406      -3.12541890      -20.0000000       1276.46277      0.189430088    
  -41.2455711      -1.56282198      -20.0000000       1276.46277      0.189430088    
  -39.7399902      -1.56351995      -20.0000000       1276.46277      0.189430088    
  -41.2455711      -1.56282198      -20.0000000       1227.46741      0.108978152    
  -42.7509499      -1.56253600      -20.0000000       1227.46741      0.108978152    
  -42.7457504       0.00000000      -20.0000000       1227.46741      0.108978152    
  -41.2401695       0.00000000      -20.0000000       1227.46741      0.108978152    
  -44.2452011       1.56199801      -20.0000000       1143.39795       4.64367457E-02
  -42.7402611       1.56238496      -20.0000000       1143.39795       4.64367457E-02
  -42.7457504       0.00000000      -20.0000000       1143.39795       4.64367457E-02
  -44.2515602       0.00000000      -20.0000000       1143.39795       4.64367457E-02
  -44.2452011       1.56199801      -20.0000000       1023.61084       1.59047060E-02
  -45.7509003       1.56100297      -20.0000000       1023.61084       1.59047060E-02
  -45.7402802       3.12332392      -20.0000000       1023.61084       1.59047060E-02
  -44.2380295       3.12447906      -20.0000000       1023.61084       1.59047060E-02
  -45.7402802       3.12332392      -20.0000000       867.483154       5.37787639E-02
  -47.2370110       3.11982203      -20.0000000       867.483154       5.37787639E-02
  -47.2300911       4.68496799      -20.0000000       867.483154       5.37787639E-02
  -45.7329903       4.68700409      -20.0000000       867.483154       5.37787639E-02
  -47.2300911       4.68496799      -20.0000000       690.129883      0.294977456    
  -48.7241211       4.67746210      -20.0000000       690.129883      0.294977456    
  -48.7411499       6.25000000      -20.0000000       690.129883      0.294977456    
  -47.2367287       6.25000000      -20.0000000       690.129883      0.294977456    
  -35.2371101      -6.25000000      -20.0000000       1282.47070      0.409944177    
  -36.7432899      -6.25000000      -20.0000000       1282.47070      0.409944177    
  -36.7384796      -4.68897390      -20.0000000       1282.47070      0.409944177    
  -35.2325211      -4.68835878      -20.0000000       1282.47070      0.409944177    
  -36.7384796      -4.68897390      -20.0000000       1342.50671      0.324895829    
  -38.2446404      -4.68936491      -20.0000000       1342.50671      0.324895829    
  -38.2396507      -3.12933803      -20.0000000       1342.50671      0.324895829    
  -36.7339096      -3.12783909      -20.0000000       1342.50671      0.324895829    
  -38.2396507      -3.12933803      -20.0000000       1342.37720      0.243733212    
  -39.7453995      -3.12673903      -20.0000000       1342.37720      0.243733212    
  -39.7399902      -1.56351995      -20.0000000       1342.37720      0.243733212    
  -38.2346497      -1.56438303      -20.0000000       1342.37720      0.243733212    
  -39.7399902      -1.56351995      -20.0000000       1302.76990      0.169528246    
  -41.2455711      -1.56282198      -20.0000000       1302.76990      0.169528246    
  -41.2401695       0.00000000      -20.0000000       1302.76990      0.169528246    