 VARIABLES="X" "Y" "Z" "abs(p) (Pa)" "angle(p) (rad)"
ZONE N=   3650,E =    3624, F=FEPOINT, ET=QUADRILATERAL
  -56.5164909      -2.47323704      -20.0000000       3139.47144       1.71672451    
  -55.4176407      -3.26747894      -20.0000000       3139.47144       1.71672451    
  -55.9264717      -4.64953518      -20.0000000       3139.47144       1.71672451    
  -56.9148483      -3.51935697      -20.0000000       3139.47144       1.71672451    
  -56.9148483      -3.51935697      -20.0000000       2754.40796       1.73724926    
  -57.6058807      -2.18402195      -20.0000000       2754.40796       1.73724926    
  -56.5164909      -2.47323704      -20.0000000       2754.40796       1.73724926    
  -56.5164909      -2.47323704      -20.0000000       2754.40796       1.73724926    
  -54.6953812      -5.51239681      -20.0000000       3396.81470       1.70726323    
  -55.9264717      -4.64953518      -20.0000000       3396.81470       1.70726323    
  -55.4176407      -3.26747894      -20.0000000       3396.81470       1.70726323    
  -54.2450790      -3.94889998      -20.0000000       3396.81470       1.70726323    
  -54.2450790      -3.94889998      -20.0000000       3609.28125       1.70044208    
  -52.9834785      -4.46340179      -20.0000000       3609.28125       1.70044208    
  -53.2955093      -6.05576801      -20.0000000       3609.28125       1.70044208    
  -54.6953812      -5.51239681      -20.0000000       3609.28125       1.70044208    
  -56.5223999      -1.11500299      -20.0000000       3045.28442       1.71658075    
  -56.5164909      -2.47323704      -20.0000000       3045.28442       1.71658075    
  -57.6058807      -2.18402195      -20.0000000       3045.28442       1.71658075    
  -57.9577713     -0.724482894      -20.0000000       3045.28442       1.71658075    
  -56.5164909      -2.47323704      -20.0000000       3897.03589       1.68149102    
  -56.5223999      -1.11500299      -20.0000000       3897.03589       1.68149102    
  -55.1657600      -1.76926601      -20.0000000       3897.03589       1.68149102    
  -55.4176407      -3.26747894      -20.0000000       3897.03589       1.68149102    
  -54.2450790      -3.94889998      -20.0000000       4348.34814       1.66922343    
  -55.4176407      -3.26747894      -20.0000000       4348.34814       1.66922343    
  -55.1657600      -1.76926601      -20.0000000       4348.34814       1.66922343    
  -53.8819199      -2.32836604      -20.0000000       4348.34814       1.66922343    
  -52.9834785      -4.46340179      -20.0000000       3837.89453       1.69241226    
  -51.6155815      -4.69134283      -20.0000000       3837.89453       1.69241226    
  -51.8049088      -6.24783087      -20.0000000       3837.89453       1.69241226    
  -53.2955093      -6.05576801      -20.0000000       3837.89453       1.69241226    
  -56.3964119      0.254809886      -20.0000000       3177.03174       1.70842004    
  -56.5223999      -1.11500299      -20.0000000       3177.03174       1.70842004    
  -57.9577713     -0.724482894      -20.0000000       3177.03174       1.70842004    
  -57.9511719      0.779103875      -20.0000000       3177.03174       1.70842004    
  -53.8819199      -2.32836604      -20.0000000       4630.63135       1.66299248    
  -52.7235603      -2.92538095      -20.0000000       4630.63135       1.66299248    
  -52.9834785      -4.46340179      -20.0000000       4630.63135       1.66299248    
  -54.2450790      -3.94889998      -20.0000000       4630.63135       1.66299248    
  -56.5223999      -1.11500299      -20.0000000       4218.63721       1.67035925    
  -56.3964119      0.254809886      -20.0000000       4218.63721       1.67035925    
  -54.8835487     -0.325594515      -20.0000000       4218.63721       1.67035925    
  -55.1657600      -1.76926601      -20.0000000       4218.63721       1.67035925    
  -50.2990494      -6.25000000      -20.0000000       4108.22412       1.68221951    
  -51.8049088      -6.24783087      -20.0000000       4108.22412       1.68221951    
  -51.6155815      -4.69134283      -20.0000000       4108.22412       1.68221951    
  -50.1911316      -4.70199823      -20.0000000       4108.22412       1.68221951    
  -53.8819199      -2.32836604      -20.0000000       4843.61475       1.65558755    
  -55.1657600      -1.76926601      -20.0000000       4843.61475       1.65558755    
  -54.8835487     -0.325594515      -20.0000000       4843.61475       1.65558755    
  -53.3087082     -0.726661325      -20.0000000       4843.61475       1.65558755    
  -52.7235603      -2.92538095      -20.0000000       4868.37598       1.65785456    
  -51.4683685      -3.18431592      -20.0000000       4868.37598       1.65785456    
  -51.6155815      -4.69134283      -20.0000000       4868.37598       1.65785456    
  -52.9834785      -4.46340179      -20.0000000       4868.37598       1.65785456    
  -56.1067696       1.60355306      -20.0000000       3237.13599       1.70620370    
  -56.3964119      0.254809886      -20.0000000       3237.13599       1.70620370    
  -57.9511719      0.779103875      -20.0000000       3237.13599       1.70620370    
  -57.5863686       2.23558092      -20.0000000       3237.13599       1.70620370    
  -56.3964119      0.254809886      -20.0000000       4343.86523       1.66695583    
  -56.1067696       1.60355306      -20.0000000       4343.86523       1.66695583    
  -54.6488190       1.11988902      -20.0000000       4343.86523       1.66695583    
  -54.8835487     -0.325594515      -20.0000000       4343.86523       1.66695583    
  -51.8859215      -1.67511594      -20.0000000       5228.07617       1.64822984    
  -52.7235603      -2.92538095      -20.0000000       5228.07617       1.64822984    
  -53.8819199      -2.32836604      -20.0000000       5228.07617       1.64822984    
  -53.3087082     -0.726661325      -20.0000000       5228.07617       1.64822984    
  -48.7928200      -6.25000000      -20.0000000       4365.76660       1.67234731    
  -50.2990494      -6.25000000      -20.0000000       4365.76660       1.67234731    
  -50.1911316      -4.70199823      -20.0000000       4365.76660       1.67234731    
  -48.7387619      -4.69004917      -20.0000000       4365.76660       1.67234731    
  -50.1911316      -4.70199823      -20.0000000       5147.38086       1.65135539    
  -51.6155815      -4.69134283      -20.0000000       5147.38086       1.65135539    
  -51.4683685      -3.18431592      -20.0000000       5147.38086       1.65135539    
  -50.1564102      -3.12996602      -20.0000000       5147.38086       1.65135539    
  -54.6488190       1.11988902      -20.0000000       5033.42285       1.65130174    
  -53.2043991       1.01675200      -20.0000000       5033.42285       1.65130174    
  -53.3087082     -0.726661325      -20.0000000       5033.42285       1.65130174    
  -54.8835487     -0.325594515      -20.0000000       5033.42285       1.65130174    
  -51.4683685      -3.18431592      -20.0000000       5337.31250       1.64660490    
  -52.7235603      -2.92538095      -20.0000000       5337.31250       1.64660490    
  -51.8859215      -1.67511594      -20.0000000       5337.31250       1.64660490    
  -51.8859215      -1.67511594      -20.0000000       5337.31250       1.64660490    
  -55.6295395       2.91055298      -20.0000000       3241.96411       1.70847392    
  -56.1067696       1.60355306      -20.0000000       3241.96411       1.70847392    
  -57.5863686       2.23558092      -20.0000000       3241.96411       1.70847392    
  -56.8836594       3.56473303      -20.0000000       3241.96411       1.70847392    
  -47.2866096      -6.25000000      -20.0000000       4574.31689       1.66378367    
  -48.7928200      -6.25000000      -20.0000000       4574.31689       1.66378367    
  -48.7387619      -4.69004917      -20.0000000       4574.31689       1.66378367    
  -47.2626686      -4.68801212      -20.0000000       4574.31689       1.66378367    
  -48.7387619      -4.69004917      -20.0000000       5425.34766       1.64469576    
  -50.1911316      -4.70199823      -20.0000000       5425.34766       1.64469576    
  -50.1564102      -3.12996602      -20.0000000       5425.34766       1.64469576    
  -48.7254105      -3.12169194      -20.0000000       5425.34766       1.64469576    
  -50.1564102      -3.12996602      -20.0000000       5655.02930       1.64039302    
  -51.4683685      -3.18431592      -20.0000000       5655.02930       1.64039302    
  -51.8859215      -1.67511594      -20.0000000       5655.02930       1.64039302    
  -50.2854195      -1.59545600      -20.0000000       5655.02930       1.64039302    
  -54.6488190       1.11988902      -20.0000000       4307.75244       1.66904688    
  -56.1067696       1.60355306      -20.0000000       4307.75244       1.66904688    
  -55.6295395       2.91055298      -20.0000000       4307.75244       1.66904688    
  -54.3531990       2.57653904      -20.0000000       4307.75244       1.66904688    
  -51.7686501     -0.191007897      -20.0000000       5546.39551       1.64192963    
  -51.8859215      -1.67511594      -20.0000000       5546.39551       1.64192963    
  -53.3087082     -0.726661325      -20.0000000       5546.39551       1.64192963    
  -53.3087082     -0.726661325      -20.0000000       5546.39551       1.64192963    
  -51.7686501     -0.191007897      -20.0000000       5516.55518       1.64234948    
  -53.3087082     -0.726661325      -20.0000000       5516.55518       1.64234948    
  -53.2043991       1.01675200      -20.0000000       5516.55518       1.64234948    
  -51.7500000       1.29565406      -20.0000000       5516.55518       1.64234948    
  -53.0367393       2.70281792      -20.0000000       4944.37109       1.65383053    
  -53.2043991       1.01675200      -20.0000000       4944.37109       1.65383053    
  -54.6488190       1.11988902      -20.0000000       4944.37109       1.65383053    
  -54.3531990       2.57653904      -20.0000000       4944.37109       1.65383053    
  -45.7804108      -6.25000000      -20.0000000       4748.72510       1.65571690    
  -47.2866096      -6.25000000      -20.0000000       4748.72510       1.65571690    
  -47.2626686      -4.68801212      -20.0000000       4748.72510       1.65571690    
  -45.7679100      -4.68779421      -20.0000000       4748.72510       1.65571690    
  -47.2626686      -4.68801212      -20.0000000       5653.17969       1.63879216    
  -48.7387619      -4.69004917      -20.0000000       5653.17969       1.63879216    
  -48.7254105      -3.12169194      -20.0000000       5653.17969       1.63879216    
  -47.2550507      -3.12222195      -20.0000000       5653.17969       1.63879216    
  -54.5736809       4.04919481      -20.0000000       3291.04395       1.70991838    
  -55.6295395       2.91055298      -20.0000000       3291.04395       1.70991838    
  -56.8836594       3.56473303      -20.0000000       3291.04395       1.70991838    
  -55.8850899       4.68635893      -20.0000000       3291.04395       1.70991838    
  -48.7254105      -3.12169194      -20.0000000       5955.92676       1.63455904    
  -50.1564102      -3.12996602      -20.0000000       5955.92676       1.63455904    
  -50.2854195      -1.59545600      -20.0000000       5955.92676       1.63455904    
  -48.7658615      -1.56390297      -20.0000000       5955.92676       1.63455904    
  -50.2854195      -1.59545600      -20.0000000       5865.82715       1.63637221    
  -51.8859215      -1.67511594      -20.0000000       5865.82715       1.63637221    
  -51.7686501     -0.191007897      -20.0000000       5865.82715       1.63637221    
  -50.2816200      -7.23225027E-02  -20.0000000       5865.82715       1.63637221    
  -55.6295395       2.91055298      -20.0000000       4136.55518       1.67581069    
  -54.5736809       4.04919481      -20.0000000       4136.55518       1.67581069    
  -54.3531990       2.57653904      -20.0000000       4136.55518       1.67581069    
  -54.3531990       2.57653904      -20.0000000       4136.55518       1.67581069    
  -51.6464691       2.90894699      -20.0000000       5368.20166       1.64556611    
  -51.7500000       1.29565406      -20.0000000       5368.20166       1.64556611    
  -53.2043991       1.01675200      -20.0000000       5368.20166       1.64556611    
  -53.0367393       2.70281792      -20.0000000       5368.20166       1.64556611    
  -44.2742119      -6.25000000      -20.0000000       4900.95996       1.64767528    
  -45.7804108      -6.25000000      -20.0000000       4900.95996       1.64767528    
  -45.7679100      -4.68779421      -20.0000000       4900.95996       1.64767528    
  -44.2670212      -4.68766403      -20.0000000       4900.95996       1.64767528    
  -45.7679100      -4.68779421      -20.0000000       5845.43799       1.63313496    
  -47.2626686      -4.68801212      -20.0000000       5845.43799       1.63313496    
  -47.2550507      -3.12222195      -20.0000000       5845.43799       1.63313496    
  -45.7611885      -3.12411094      -20.0000000       5845.43799       1.63313496    
  -51.7500000       1.29565406      -20.0000000       5895.08496       1.63582718    
  -50.2459984       1.47492099      -20.0000000       5895.08496       1.63582718    
  -50.2816200      -7.23225027E-02  -20.0000000       5895.08496       1.63582718    
  -51.7686501     -0.191007897      -20.0000000       5895.08496       1.63582718    
  -47.2550507      -3.12222195      -20.0000000       6199.68164       1.62944353    
  -48.7254105      -3.12169194      -20.0000000       6199.68164       1.62944353    
  -48.7658615      -1.56390297      -20.0000000       6199.68164       1.62944353    
  -47.2643318      -1.55986798      -20.0000000       6199.68164       1.62944353    
  -48.7658615      -1.56390297      -20.0000000       6186.91943       1.63069010    
  -50.2854195      -1.59545600      -20.0000000       6186.91943       1.63069010    
  -50.2816200      -7.23225027E-02  -20.0000000       6186.91943       1.63069010    
  -48.7753716      -1.42937005E-02  -20.0000000       6186.91943       1.63069010    
  -54.5736809       4.04919481      -20.0000000       4515.63818       1.66580582    
  -53.0954399       4.36336088      -20.0000000       4515.63818       1.66580582    
  -53.0367393       2.70281792      -20.0000000       4515.63818       1.66580582    
  -54.3531990       2.57653904      -20.0000000       4515.63818       1.66580582    
  -54.6465797       5.53822613      -20.0000000       3110.06470       1.72360992    
  -54.5736809       4.04919481      -20.0000000       3110.06470       1.72360992    
  -55.8850899       4.68635893      -20.0000000       3110.06470       1.72360992    
  -55.8850899       4.68635893      -20.0000000       3110.06470       1.72360992    
  -44.2670212      -4.68766403      -20.0000000       5037.39746       1.63945067    
  -42.7620697      -4.68767691      -20.0000000       5037.39746       1.63945067    
  -42.7680206      -6.25000000      -20.0000000       5037.39746       1.63945067    
  -44.2742119      -6.25000000      -20.0000000       5037.39746       1.63945067    
  -44.2670212      -4.68766403      -20.0000000       6012.60352       1.62744904    
  -45.7679100      -4.68779421      -20.0000000       6012.60352       1.62744904    
  -45.7611885      -3.12411094      -20.0000000       6012.60352       1.62744904    
  -44.2611694      -3.12488103      -20.0000000       6012.60352       1.62744904    
  -45.7611885      -3.12411094      -20.0000000       6404.10791       1.62457156    
  -47.2550507      -3.12222195      -20.0000000       6404.10791       1.62457156    
  -47.2643318      -1.55986798      -20.0000000       6404.10791       1.62457156    
  -45.7603798      -1.56126106      -20.0000000       6404.10791       1.62457156    
  -50.2459984       1.47492099      -20.0000000       5695.16895       1.63954544    
  -51.7500000       1.29565406      -20.0000000       5695.16895       1.63954544    
  -51.6464691       2.90894699      -20.0000000       5695.16895       1.63954544    
  -50.2011604       3.04989505      -20.0000000       5695.16895       1.63954544    
  -54.6465797       5.53822613      -20.0000000       3585.93726       1.70117795    
  -53.2416306       6.06926107      -20.0000000       3585.93726       1.70117795    
  -53.0954399       4.36336088      -20.0000000       3585.93726       1.70117795    
  -54.5736809       4.04919481      -20.0000000       3585.93726       1.70117795    
  -47.2643318      -1.55986798      -20.0000000       6443.03271       1.62578893    
  -48.7658615      -1.56390297      -20.0000000       6443.03271       1.62578893    
  -48.7753716      -1.42937005E-02  -20.0000000       6443.03271       1.62578893    
  -47.2657204       0.00000000      -20.0000000       6443.03271       1.62578893    
  -48.7753716      -1.42937005E-02  -20.0000000       6194.91699       1.63053870    
  -50.2816200      -7.23225027E-02  -20.0000000       6194.91699       1.63053870    
  -50.2459984       1.47492099      -20.0000000       6194.91699       1.63053870    
  -48.7560692       1.53868604      -20.0000000       6194.91699       1.63053870    
  -51.6464691       2.90894699      -20.0000000       4900.45947       1.65675819    
  -53.0367393       2.70281792      -20.0000000       4900.45947       1.65675819    
  -53.0954399       4.36336088      -20.0000000       4900.45947       1.65675819    
  -51.6648903       4.56408405      -20.0000000       4900.45947       1.65675819    
  -41.2618294      -6.25000000      -20.0000000       5161.89160       1.63095045    
  -42.7680206      -6.25000000      -20.0000000       5161.89160       1.63095045    
  -42.7620697      -4.68767691      -20.0000000       5161.89160       1.63095045    
  -41.2566490      -4.68782711      -20.0000000       5161.89160       1.63095045    
  -44.2611694      -3.12488103      -20.0000000       6161.04688       1.62160790    
  -42.7563400      -3.12513494      -20.0000000       6161.04688       1.62160790    
  -42.7620697      -4.68767691      -20.0000000       6161.04688       1.62160790    
  -44.2670212      -4.68766403      -20.0000000       6161.04688       1.62160790    
  -44.2611694      -3.12488103      -20.0000000       6580.64014       1.61969960    
  -45.7611885      -3.12411094      -20.0000000       6580.64014       1.61969960    
  -45.7603798      -1.56126106      -20.0000000       6580.64014       1.61969960    
  -44.2565308      -1.56226599      -20.0000000       6580.64014       1.61969960    
  -45.7603798      -1.56126106      -20.0000000       6655.50781       1.62117696    
  -47.2643318      -1.55986798      -20.0000000       6655.50781       1.62117696    
  -47.2657204       0.00000000      -20.0000000       6655.50781       1.62117696    
  -45.7582893       0.00000000      -20.0000000       6655.50781       1.62117696    
  -47.2657204       0.00000000      -20.0000000       6444.80664       1.62574220    
  -48.7753716      -1.42937005E-02  -20.0000000       6444.80664       1.62574220    
  -48.7560692       1.53868604      -20.0000000       6444.80664       1.62574220    
  -47.2535896       1.55706894      -20.0000000       6444.80664       1.62574220    
  -48.7560692       1.53868604      -20.0000000       5967.67822       1.63429987    
  -50.2459984       1.47492099      -20.0000000       5967.67822       1.63429987    
  -50.2011604       3.04989505      -20.0000000       5967.67822       1.63429987    
  -48.7281189       3.10503101      -20.0000000       5967.67822       1.63429987    
  -50.2011604       3.04989505      -20.0000000       5191.91992       1.65019357    
  -51.6464691       2.90894699      -20.0000000       5191.91992       1.65019357    
  -51.6648903       4.56408405      -20.0000000       5191.91992       1.65019357    
  -50.2067184       4.64797401      -20.0000000       5191.91992       1.65019357    
  -51.6648903       4.56408405      -20.0000000       3881.57397       1.69032669    
  -53.0954399       4.36336088      -20.0000000       3881.57397       1.69032669    
  -53.2416306       6.06926107      -20.0000000       3881.57397       1.69032669    
  -51.7500000       6.25000000      -20.0000000       3881.57397       1.69032669    
  -39.7556496      -6.25000000      -20.0000000       5278.06055       1.62212086    
  -41.2618294      -6.25000000      -20.0000000       5278.06055       1.62212086    
  -41.2566490      -4.68782711      -20.0000000       5278.06055       1.62212086    
  -39.7507591      -4.68851089      -20.0000000       5278.06055       1.62212086    
  -41.2566490      -4.68782711      -20.0000000       6295.12109       1.61554050    
  -42.7620697      -4.68767691      -20.0000000       6295.12109       1.61554050    
  -42.7563400      -3.12513494      -20.0000000       6295.12109       1.61554050    
  -41.2511406      -3.12541890      -20.0000000       6295.12109       1.61554050    
  -44.2565308      -1.56226599      -20.0000000       6735.86865       1.61470962    
  -42.7509499      -1.56253600      -20.0000000       6735.86865       1.61470962    
  -42.7563400      -3.12513494      -20.0000000       6735.86865       1.61470962    
  -44.2611694      -3.12488103      -20.0000000       6735.86865       1.61470962    
  -44.2565308      -1.56226599      -20.0000000       6837.26416       1.61660147    
  -45.7603798      -1.56126106      -20.0000000       6837.26416       1.61660147    
  -45.7582893       0.00000000      -20.0000000       6837.26416       1.61660147    
  -44.2515602       0.00000000      -20.0000000       6837.26416       1.61660147    
  -45.7582893       0.00000000      -20.0000000       6656.02441       1.62114704    
  -47.2657204       0.00000000      -20.0000000       6656.02441       1.62114704    
  -47.2535896       1.55706894      -20.0000000       6656.02441       1.62114704    
  -45.7509003       1.56100297      -20.0000000       6656.02441       1.62114704    
  -47.2535896       1.55706894      -20.0000000       6202.30225       1.62933993    
  -48.7560692       1.53868604      -20.0000000       6202.30225       1.62933993    
  -48.7281189       3.10503101      -20.0000000       6202.30225       1.62933993    
  -47.2370110       3.11982203      -20.0000000       6202.30225       1.62933993    
  -48.7281189       3.10503101      -20.0000000       5439.95557       1.64429200    
  -50.2011604       3.04989505      -20.0000000       5439.95557       1.64429200    
  -50.2067184       4.64797401      -20.0000000       5439.95557       1.64429200    
  -48.7241211       4.67746210      -20.0000000       5439.95557       1.64429200    
  -50.2067184       4.64797401      -20.0000000       4148.99463       1.68049943    
  -51.6648903       4.56408405      -20.0000000       4148.99463       1.68049943    
  -51.7500000       6.25000000      -20.0000000       4148.99463       1.68049943    
  -50.2455711       6.25000000      -20.0000000       4148.99463       1.68049943    
  -38.2494698      -6.25000000      -20.0000000       5387.89062       1.61296117    
  -39.7556496      -6.25000000      -20.0000000       5387.89062       1.61296117    
  -39.7507591      -4.68851089      -20.0000000       5387.89062       1.61296117    
  -38.2446404      -4.68936491      -20.0000000       5387.89062       1.61296117    
  -39.7507591      -4.68851089      -20.0000000       6418.07422       1.60921907    
  -41.2566490      -4.68782711      -20.0000000       6418.07422       1.60921907    
  -41.2511406      -3.12541890      -20.0000000       6418.07422       1.60921907    
  -39.7453995      -3.12673903      -20.0000000       6418.07422       1.60921907    
  -41.2511406      -3.12541890      -20.0000000       6875.47363       1.60953069    
  -42.7563400      -3.12513494      -20.0000000       6875.47363       1.60953069    
  -42.7509499      -1.56253600      -20.0000000       6875.47363       1.60953069    
  -41.2455711      -1.56282198      -20.0000000       6875.47363       1.60953069    
  -44.2515602       0.00000000      -20.0000000       6996.35010       1.61193466    
  -42.7457504       0.00000000      -20.0000000       6996.35010       1.61193466    
  -42.7509499      -1.56253600      -20.0000000       6996.35010       1.61193466    
  -44.2565308      -1.56226599      -20.0000000       6996.35010       1.61193466    
  -44.2515602       0.00000000      -20.0000000       6837.70947       1.61657190    
  -45.7582893       0.00000000      -20.0000000       6837.70947       1.61657190    
  -45.7509003       1.56100297      -20.0000000       6837.70947       1.61657190    
  -44.2452011       1.56199801      -20.0000000       6837.70947       1.61657190    
  -45.7509003       1.56100297      -20.0000000       6405.02197       1.62448514    
  -47.2535896       1.55706894      -20.0000000       6405.02197       1.62448514    
  -47.2370110       3.11982203      -20.0000000       6405.02197       1.62448514    
  -45.7402802       3.12332392      -20.0000000       6405.02197       1.62448514    
  -47.2370110       3.11982203      -20.0000000       5657.65674       1.63858664    
  -48.7281189       3.10503101      -20.0000000       5657.65674       1.63858664    
  -48.7241211       4.67746210      -20.0000000       5657.65674       1.63858664    
  -47.2300911       4.68496799      -20.0000000       5657.65674       1.63858664    
  -48.7241211       4.67746210      -20.0000000       4383.79541       1.67153478    
  -50.2067184       4.64797401      -20.0000000       4383.79541       1.67153478    
  -50.2455711       6.25000000      -20.0000000       4383.79541       1.67153478    
  -48.7411499       6.25000000      -20.0000000       4383.79541       1.67153478    
  -36.7432899      -6.25000000      -20.0000000       5492.97461       1.60348523    
  -38.2494698      -6.25000000      -20.0000000       5492.97461       1.60348523    
  -38.2446404      -4.68936491      -20.0000000       5492.97461       1.60348523    
  -36.7384796      -4.68897390      -20.0000000       5492.97461       1.60348523    
  -38.2446404      -4.68936491      -20.0000000       6532.81152       1.60263288    
  -39.7507591      -4.68851089      -20.0000000       6532.81152       1.60263288    
  -39.7453995      -3.12673903      -20.0000000       6532.81152       1.60263288    
  -38.2396507      -3.12933803      -20.0000000       6532.81152       1.60263288    
  -39.7453995      -3.12673903      -20.0000000       7002.61426       1.60413373    
  -41.2511406      -3.12541890      -20.0000000       7002.61426       1.60413373    
  -41.2455711      -1.56282198      -20.0000000       7002.61426       1.60413373    
  -39.7399902      -1.56351995      -20.0000000       7002.61426       1.60413373    
  -41.2455711      -1.56282198      -20.0000000       7138.77441       1.60709918    
  -42.7509499      -1.56253600      -20.0000000       7138.77441       1.60709918    
  -42.7457504       0.00000000      -20.0000000       7138.77441       1.60709918    
  -41.2401695       0.00000000      -20.0000000       7138.77441       1.60709918    
  -44.2452011       1.56199801      -20.0000000       6996.54639       1.61190629    
  -42.7402611       1.56238496      -20.0000000       6996.54639       1.61190629    
  -42.7457504       0.00000000      -20.0000000       6996.54639       1.61190629    
  -44.2515602       0.00000000      -20.0000000       6996.54639       1.61190629    
  -44.2452011       1.56199801      -20.0000000       6581.12891       1.61961138    
  -45.7509003       1.56100297      -20.0000000       6581.12891       1.61961138    
  -45.7402802       3.12332392      -20.0000000       6581.12891       1.61961138    
  -44.2380295       3.12447906      -20.0000000       6581.12891       1.61961138    
  -45.7402802       3.12332392      -20.0000000       5847.98438       1.63294792    
  -47.2370110       3.11982203      -20.0000000       5847.98438       1.63294792    
  -47.2300911       4.68496799      -20.0000000       5847.98438       1.63294792    
  -45.7329903       4.68700409      -20.0000000       5847.98438       1.63294792    
  -47.2300911       4.68496799      -20.0000000       4581.22949       1.66332185    
  -48.7241211       4.67746210      -20.0000000       4581.22949       1.66332185    
  -48.7411499       6.25000000      -20.0000000       4581.22949       1.66332185    
  -47.2367287       6.25000000      -20.0000000       4581.22949       1.66332185    
  -35.2371101      -6.25000000      -20.0000000       5595.04102       1.59373248    
  -36.7432899      -6.25000000      -20.0000000       5595.04102       1.59373248    
  -36.7384796      -4.68897390      -20.0000000       5595.04102       1.59373248    
  -35.2325211      -4.68835878      -20.0000000       5595.04102       1.59373248    
  -36.7384796      -4.68897390      -20.0000000       6641.34619       1.59578764    
  -38.2446404      -4.68936491      -20.0000000       6641.34619       1.59578764    
  -38.2396507      -3.12933803      -20.0000000       6641.34619       1.59578764    
  -36.7339096      -3.12783909      -20.0000000       6641.34619       1.59578764    
  -38.2396507      -3.12933803      -20.0000000       7120.62061       1.59850729    
  -39.7453995      -3.12673903      -20.0000000       7120.62061       1.59850729    
  -39.7399902      -1.56351995      -20.0000000       7120.62061       1.59850729    
  -38.2346497      -1.56438303      -20.0000000       7120.62061       1.59850729    
  -39.7399902      -1.56351995      -20.0000000       7267.51611       1.60206902    
  -41.2455711      -1.56282198      -20.0000000       7267.51611       1.60206902    
  -41.2401695       0.00000000      -20.0000000       7267.51611       1.60206902    