 VARIABLES="X" "Y" "Z" "abs(p) (Pa)" "angle(p) (rad)"
ZONE N=   3650,E =    3624, F=FEPOINT, ET=QUADRILATERAL
  -56.5164909      -2.47323704      -20.0000000       1409.63782      -1.95493770    
  -55.4176407      -3.26747894      -20.0000000       1409.63782      -1.95493770    
  -55.9264717      -4.64953518      -20.0000000       1409.63782      -1.95493770    
  -56.9148483      -3.51935697      -20.0000000       1409.63782      -1.95493770    
  -56.9148483      -3.51935697      -20.0000000       1486.58899      -1.97385359    
  -57.6058807      -2.18402195      -20.0000000       1486.58899      -1.97385359    
  -56.5164909      -2.47323704      -20.0000000       1486.58899      -1.97385359    
  -56.5164909      -2.47323704      -20.0000000       1486.58899      -1.97385359    
  -54.6953812      -5.51239681      -20.0000000       1329.54260      -1.96891475    
  -55.9264717      -4.64953518      -20.0000000       1329.54260      -1.96891475    
  -55.4176407      -3.26747894      -20.0000000       1329.54260      -1.96891475    
  -54.2450790      -3.94889998      -20.0000000       1329.54260      -1.96891475    
  -54.2450790      -3.94889998      -20.0000000       1247.11462      -2.00120354    
  -52.9834785      -4.46340179      -20.0000000       1247.11462      -2.00120354    
  -53.2955093      -6.05576801      -20.0000000       1247.11462      -2.00120354    
  -54.6953812      -5.51239681      -20.0000000       1247.11462      -2.00120354    
  -56.5223999      -1.11500299      -20.0000000       1488.85083      -1.92250896    
  -56.5164909      -2.47323704      -20.0000000       1488.85083      -1.92250896    
  -57.6058807      -2.18402195      -20.0000000       1488.85083      -1.92250896    
  -57.9577713     -0.724482894      -20.0000000       1488.85083      -1.92250896    
  -56.5164909      -2.47323704      -20.0000000       1396.98169      -1.84618044    
  -56.5223999      -1.11500299      -20.0000000       1396.98169      -1.84618044    
  -55.1657600      -1.76926601      -20.0000000       1396.98169      -1.84618044    
  -55.4176407      -3.26747894      -20.0000000       1396.98169      -1.84618044    
  -54.2450790      -3.94889998      -20.0000000       1341.68530      -1.82876194    
  -55.4176407      -3.26747894      -20.0000000       1341.68530      -1.82876194    
  -55.1657600      -1.76926601      -20.0000000       1341.68530      -1.82876194    
  -53.8819199      -2.32836604      -20.0000000       1341.68530      -1.82876194    
  -52.9834785      -4.46340179      -20.0000000       1169.03052      -2.04217768    
  -51.6155815      -4.69134283      -20.0000000       1169.03052      -2.04217768    
  -51.8049088      -6.24783087      -20.0000000       1169.03052      -2.04217768    
  -53.2955093      -6.05576801      -20.0000000       1169.03052      -2.04217768    
  -56.3964119      0.254809886      -20.0000000       1494.00183      -1.89957047    
  -56.5223999      -1.11500299      -20.0000000       1494.00183      -1.89957047    
  -57.9577713     -0.724482894      -20.0000000       1494.00183      -1.89957047    
  -57.9511719      0.779103875      -20.0000000       1494.00183      -1.89957047    
  -53.8819199      -2.32836604      -20.0000000       1290.80493      -1.83963668    
  -52.7235603      -2.92538095      -20.0000000       1290.80493      -1.83963668    
  -52.9834785      -4.46340179      -20.0000000       1290.80493      -1.83963668    
  -54.2450790      -3.94889998      -20.0000000       1290.80493      -1.83963668    
  -56.5223999      -1.11500299      -20.0000000       1403.12598      -1.80217183    
  -56.3964119      0.254809886      -20.0000000       1403.12598      -1.80217183    
  -54.8835487     -0.325594515      -20.0000000       1403.12598      -1.80217183    
  -55.1657600      -1.76926601      -20.0000000       1403.12598      -1.80217183    
  -50.2990494      -6.25000000      -20.0000000       1106.84656      -2.08439660    
  -51.8049088      -6.24783087      -20.0000000       1106.84656      -2.08439660    
  -51.6155815      -4.69134283      -20.0000000       1106.84656      -2.08439660    
  -50.1911316      -4.70199823      -20.0000000       1106.84656      -2.08439660    
  -53.8819199      -2.32836604      -20.0000000       1360.11633      -1.76760316    
  -55.1657600      -1.76926601      -20.0000000       1360.11633      -1.76760316    
  -54.8835487     -0.325594515      -20.0000000       1360.11633      -1.76760316    
  -53.3087082     -0.726661325      -20.0000000       1360.11633      -1.76760316    
  -52.7235603      -2.92538095      -20.0000000       1241.88464      -1.86453700    
  -51.4683685      -3.18431592      -20.0000000       1241.88464      -1.86453700    
  -51.6155815      -4.69134283      -20.0000000       1241.88464      -1.86453700    
  -52.9834785      -4.46340179      -20.0000000       1241.88464      -1.86453700    
  -56.1067696       1.60355306      -20.0000000       1479.81799      -1.89895022    
  -56.3964119      0.254809886      -20.0000000       1479.81799      -1.89895022    
  -57.9511719      0.779103875      -20.0000000       1479.81799      -1.89895022    
  -57.5863686       2.23558092      -20.0000000       1479.81799      -1.89895022    
  -56.3964119      0.254809886      -20.0000000       1396.73938      -1.79234815    
  -56.1067696       1.60355306      -20.0000000       1396.73938      -1.79234815    
  -54.6488190       1.11988902      -20.0000000       1396.73938      -1.79234815    
  -54.8835487     -0.325594515      -20.0000000       1396.73938      -1.79234815    
  -51.8859215      -1.67511594      -20.0000000       1323.66150      -1.76930690    
  -52.7235603      -2.92538095      -20.0000000       1323.66150      -1.76930690    
  -53.8819199      -2.32836604      -20.0000000       1323.66150      -1.76930690    
  -53.3087082     -0.726661325      -20.0000000       1323.66150      -1.76930690    
  -48.7928200      -6.25000000      -20.0000000       1061.40662      -2.13532424    
  -50.2990494      -6.25000000      -20.0000000       1061.40662      -2.13532424    
  -50.1911316      -4.70199823      -20.0000000       1061.40662      -2.13532424    
  -48.7387619      -4.69004917      -20.0000000       1061.40662      -2.13532424    
  -50.1911316      -4.70199823      -20.0000000       1203.79358      -1.89102507    
  -51.6155815      -4.69134283      -20.0000000       1203.79358      -1.89102507    
  -51.4683685      -3.18431592      -20.0000000       1203.79358      -1.89102507    
  -50.1564102      -3.12996602      -20.0000000       1203.79358      -1.89102507    
  -54.6488190       1.11988902      -20.0000000       1362.06396      -1.75169015    
  -53.2043991       1.01675200      -20.0000000       1362.06396      -1.75169015    
  -53.3087082     -0.726661325      -20.0000000       1362.06396      -1.75169015    
  -54.8835487     -0.325594515      -20.0000000       1362.06396      -1.75169015    
  -51.4683685      -3.18431592      -20.0000000       1287.46875      -1.79683471    
  -52.7235603      -2.92538095      -20.0000000       1287.46875      -1.79683471    
  -51.8859215      -1.67511594      -20.0000000       1287.46875      -1.79683471    
  -51.8859215      -1.67511594      -20.0000000       1287.46875      -1.79683471    
  -55.6295395       2.91055298      -20.0000000       1444.82703      -1.91912508    
  -56.1067696       1.60355306      -20.0000000       1444.82703      -1.91912508    
  -57.5863686       2.23558092      -20.0000000       1444.82703      -1.91912508    
  -56.8836594       3.56473303      -20.0000000       1444.82703      -1.91912508    
  -47.2866096      -6.25000000      -20.0000000       1026.89758      -2.20225358    
  -48.7928200      -6.25000000      -20.0000000       1026.89758      -2.20225358    
  -48.7387619      -4.69004917      -20.0000000       1026.89758      -2.20225358    
  -47.2626686      -4.68801212      -20.0000000       1026.89758      -2.20225358    
  -48.7387619      -4.69004917      -20.0000000       1175.22791      -1.92506659    
  -50.1911316      -4.70199823      -20.0000000       1175.22791      -1.92506659    
  -50.1564102      -3.12996602      -20.0000000       1175.22791      -1.92506659    
  -48.7254105      -3.12169194      -20.0000000       1175.22791      -1.92506659    
  -50.1564102      -3.12996602      -20.0000000       1275.75549      -1.80200016    
  -51.4683685      -3.18431592      -20.0000000       1275.75549      -1.80200016    
  -51.8859215      -1.67511594      -20.0000000       1275.75549      -1.80200016    
  -50.2854195      -1.59545600      -20.0000000       1275.75549      -1.80200016    
  -54.6488190       1.11988902      -20.0000000       1373.46265      -1.81198442    
  -56.1067696       1.60355306      -20.0000000       1373.46265      -1.81198442    
  -55.6295395       2.91055298      -20.0000000       1373.46265      -1.81198442    
  -54.3531990       2.57653904      -20.0000000       1373.46265      -1.81198442    
  -51.7686501     -0.191007897      -20.0000000       1330.36035      -1.75082493    
  -51.8859215      -1.67511594      -20.0000000       1330.36035      -1.75082493    
  -53.3087082     -0.726661325      -20.0000000       1330.36035      -1.75082493    
  -53.3087082     -0.726661325      -20.0000000       1330.36035      -1.75082493    
  -51.7686501     -0.191007897      -20.0000000       1337.06348      -1.74562037    
  -53.3087082     -0.726661325      -20.0000000       1337.06348      -1.74562037    
  -53.2043991       1.01675200      -20.0000000       1337.06348      -1.74562037    
  -51.7500000       1.29565406      -20.0000000       1337.06348      -1.74562037    
  -53.0367393       2.70281792      -20.0000000       1341.28979      -1.77395809    
  -53.2043991       1.01675200      -20.0000000       1341.28979      -1.77395809    
  -54.6488190       1.11988902      -20.0000000       1341.28979      -1.77395809    
  -54.3531990       2.57653904      -20.0000000       1341.28979      -1.77395809    
  -45.7804108      -6.25000000      -20.0000000       1002.94489      -2.28185225    
  -47.2866096      -6.25000000      -20.0000000       1002.94489      -2.28185225    
  -47.2626686      -4.68801212      -20.0000000       1002.94489      -2.28185225    
  -45.7679100      -4.68779421      -20.0000000       1002.94489      -2.28185225    
  -47.2626686      -4.68801212      -20.0000000       1149.24829      -1.97616899    
  -48.7387619      -4.69004917      -20.0000000       1149.24829      -1.97616899    
  -48.7254105      -3.12169194      -20.0000000       1149.24829      -1.97616899    
  -47.2550507      -3.12222195      -20.0000000       1149.24829      -1.97616899    
  -54.5736809       4.04919481      -20.0000000       1379.46313      -1.95174360    
  -55.6295395       2.91055298      -20.0000000       1379.46313      -1.95174360    
  -56.8836594       3.56473303      -20.0000000       1379.46313      -1.95174360    
  -55.8850899       4.68635893      -20.0000000       1379.46313      -1.95174360    
  -48.7254105      -3.12169194      -20.0000000       1252.10889      -1.83442390    
  -50.1564102      -3.12996602      -20.0000000       1252.10889      -1.83442390    
  -50.2854195      -1.59545600      -20.0000000       1252.10889      -1.83442390    
  -48.7658615      -1.56390297      -20.0000000       1252.10889      -1.83442390    
  -50.2854195      -1.59545600      -20.0000000       1310.99438      -1.76526833    
  -51.8859215      -1.67511594      -20.0000000       1310.99438      -1.76526833    
  -51.7686501     -0.191007897      -20.0000000       1310.99438      -1.76526833    
  -50.2816200      -7.23225027E-02  -20.0000000       1310.99438      -1.76526833    
  -55.6295395       2.91055298      -20.0000000       1339.92468      -1.85470080    
  -54.5736809       4.04919481      -20.0000000       1339.92468      -1.85470080    
  -54.3531990       2.57653904      -20.0000000       1339.92468      -1.85470080    
  -54.3531990       2.57653904      -20.0000000       1339.92468      -1.85470080    
  -51.6464691       2.90894699      -20.0000000       1311.80225      -1.77306640    
  -51.7500000       1.29565406      -20.0000000       1311.80225      -1.77306640    
  -53.2043991       1.01675200      -20.0000000       1311.80225      -1.77306640    
  -53.0367393       2.70281792      -20.0000000       1311.80225      -1.77306640    
  -44.2742119      -6.25000000      -20.0000000       990.477844      -2.36959529    
  -45.7804108      -6.25000000      -20.0000000       990.477844      -2.36959529    
  -45.7679100      -4.68779421      -20.0000000       990.477844      -2.36959529    
  -44.2670212      -4.68766403      -20.0000000       990.477844      -2.36959529    
  -45.7679100      -4.68779421      -20.0000000       1128.43091      -2.04004240    
  -47.2626686      -4.68801212      -20.0000000       1128.43091      -2.04004240    
  -47.2550507      -3.12222195      -20.0000000       1128.43091      -2.04004240    
  -45.7611885      -3.12411094      -20.0000000       1128.43091      -2.04004240    
  -51.7500000       1.29565406      -20.0000000       1312.58179      -1.76317155    
  -50.2459984       1.47492099      -20.0000000       1312.58179      -1.76317155    
  -50.2816200      -7.23225027E-02  -20.0000000       1312.58179      -1.76317155    
  -51.7686501     -0.191007897      -20.0000000       1312.58179      -1.76317155    
  -47.2550507      -3.12222195      -20.0000000       1230.84924      -1.88137734    
  -48.7254105      -3.12169194      -20.0000000       1230.84924      -1.88137734    
  -48.7658615      -1.56390297      -20.0000000       1230.84924      -1.88137734    
  -47.2643318      -1.55986798      -20.0000000       1230.84924      -1.88137734    
  -48.7658615      -1.56390297      -20.0000000       1289.91125      -1.79708469    
  -50.2854195      -1.59545600      -20.0000000       1289.91125      -1.79708469    
  -50.2816200      -7.23225027E-02  -20.0000000       1289.91125      -1.79708469    
  -48.7753716      -1.42937005E-02  -20.0000000       1289.91125      -1.79708469    
  -54.5736809       4.04919481      -20.0000000       1298.37427      -1.84471977    
  -53.0954399       4.36336088      -20.0000000       1298.37427      -1.84471977    
  -53.0367393       2.70281792      -20.0000000       1298.37427      -1.84471977    
  -54.3531990       2.57653904      -20.0000000       1298.37427      -1.84471977    
  -54.6465797       5.53822613      -20.0000000       1325.52600      -2.02015615    
  -54.5736809       4.04919481      -20.0000000       1325.52600      -2.02015615    
  -55.8850899       4.68635893      -20.0000000       1325.52600      -2.02015615    
  -55.8850899       4.68635893      -20.0000000       1325.52600      -2.02015615    
  -44.2670212      -4.68766403      -20.0000000       989.594360      -2.46158838    
  -42.7620697      -4.68767691      -20.0000000       989.594360      -2.46158838    
  -42.7680206      -6.25000000      -20.0000000       989.594360      -2.46158838    
  -44.2742119      -6.25000000      -20.0000000       989.594360      -2.46158838    
  -44.2670212      -4.68766403      -20.0000000       1114.74658      -2.11332464    
  -45.7679100      -4.68779421      -20.0000000       1114.74658      -2.11332464    
  -45.7611885      -3.12411094      -20.0000000       1114.74658      -2.11332464    
  -44.2611694      -3.12488103      -20.0000000       1114.74658      -2.11332464    
  -45.7611885      -3.12411094      -20.0000000       1213.22974      -1.94001937    
  -47.2550507      -3.12222195      -20.0000000       1213.22974      -1.94001937    
  -47.2643318      -1.55986798      -20.0000000       1213.22974      -1.94001937    
  -45.7603798      -1.56126106      -20.0000000       1213.22974      -1.94001937    
  -50.2459984       1.47492099      -20.0000000       1281.35669      -1.79521310    
  -51.7500000       1.29565406      -20.0000000       1281.35669      -1.79521310    
  -51.6464691       2.90894699      -20.0000000       1281.35669      -1.79521310    
  -50.2011604       3.04989505      -20.0000000       1281.35669      -1.79521310    
  -54.6465797       5.53822613      -20.0000000       1250.09570      -2.00198531    
  -53.2416306       6.06926107      -20.0000000       1250.09570      -2.00198531    
  -53.0954399       4.36336088      -20.0000000       1250.09570      -2.00198531    
  -54.5736809       4.04919481      -20.0000000       1250.09570      -2.00198531    
  -47.2643318      -1.55986798      -20.0000000       1270.82483      -1.84283638    
  -48.7658615      -1.56390297      -20.0000000       1270.82483      -1.84283638    
  -48.7753716      -1.42937005E-02  -20.0000000       1270.82483      -1.84283638    
  -47.2657204       0.00000000      -20.0000000       1270.82483      -1.84283638    
  -48.7753716      -1.42937005E-02  -20.0000000       1290.57458      -1.79647934    
  -50.2816200      -7.23225027E-02  -20.0000000       1290.57458      -1.79647934    
  -50.2459984       1.47492099      -20.0000000       1290.57458      -1.79647934    
  -48.7560692       1.53868604      -20.0000000       1290.57458      -1.79647934    
  -51.6464691       2.90894699      -20.0000000       1253.85132      -1.85075259    
  -53.0367393       2.70281792      -20.0000000       1253.85132      -1.85075259    
  -53.0954399       4.36336088      -20.0000000       1253.85132      -1.85075259    
  -51.6648903       4.56408405      -20.0000000       1253.85132      -1.85075259    
  -41.2618294      -6.25000000      -20.0000000       999.974182      -2.55431414    
  -42.7680206      -6.25000000      -20.0000000       999.974182      -2.55431414    
  -42.7620697      -4.68767691      -20.0000000       999.974182      -2.55431414    
  -41.2566490      -4.68782711      -20.0000000       999.974182      -2.55431414    
  -44.2611694      -3.12488103      -20.0000000       1109.25708      -2.19308829    
  -42.7563400      -3.12513494      -20.0000000       1109.25708      -2.19308829    
  -42.7620697      -4.68767691      -20.0000000       1109.25708      -2.19308829    
  -44.2670212      -4.68766403      -20.0000000       1109.25708      -2.19308829    
  -44.2611694      -3.12488103      -20.0000000       1201.01477      -2.00770164    
  -45.7611885      -3.12411094      -20.0000000       1201.01477      -2.00770164    
  -45.7603798      -1.56126106      -20.0000000       1201.01477      -2.00770164    
  -44.2565308      -1.56226599      -20.0000000       1201.01477      -2.00770164    
  -45.7603798      -1.56126106      -20.0000000       1254.93701      -1.89973342    
  -47.2643318      -1.55986798      -20.0000000       1254.93701      -1.89973342    
  -47.2657204       0.00000000      -20.0000000       1254.93701      -1.89973342    
  -45.7582893       0.00000000      -20.0000000       1254.93701      -1.89973342    
  -47.2657204       0.00000000      -20.0000000       1270.85181      -1.84285855    
  -48.7753716      -1.42937005E-02  -20.0000000       1270.85181      -1.84285855    
  -48.7560692       1.53868604      -20.0000000       1270.85181      -1.84285855    
  -47.2535896       1.55706894      -20.0000000       1270.85181      -1.84285855    
  -48.7560692       1.53868604      -20.0000000       1253.69507      -1.83254170    
  -50.2459984       1.47492099      -20.0000000       1253.69507      -1.83254170    
  -50.2011604       3.04989505      -20.0000000       1253.69507      -1.83254170    
  -48.7281189       3.10503101      -20.0000000       1253.69507      -1.83254170    
  -50.2011604       3.04989505      -20.0000000       1212.91406      -1.87878001    
  -51.6464691       2.90894699      -20.0000000       1212.91406      -1.87878001    
  -51.6648903       4.56408405      -20.0000000       1212.91406      -1.87878001    
  -50.2067184       4.64797401      -20.0000000       1212.91406      -1.87878001    
  -51.6648903       4.56408405      -20.0000000       1171.80920      -2.03308845    
  -53.0954399       4.36336088      -20.0000000       1171.80920      -2.03308845    
  -53.2416306       6.06926107      -20.0000000       1171.80920      -2.03308845    
  -51.7500000       6.25000000      -20.0000000       1171.80920      -2.03308845    
  -39.7556496      -6.25000000      -20.0000000       1020.66315      -2.64458609    
  -41.2618294      -6.25000000      -20.0000000       1020.66315      -2.64458609    
  -41.2566490      -4.68782711      -20.0000000       1020.66315      -2.64458609    
  -39.7507591      -4.68851089      -20.0000000       1020.66315      -2.64458609    
  -41.2566490      -4.68782711      -20.0000000       1112.43420      -2.27671218    
  -42.7620697      -4.68767691      -20.0000000       1112.43420      -2.27671218    
  -42.7563400      -3.12513494      -20.0000000       1112.43420      -2.27671218    
  -41.2511406      -3.12541890      -20.0000000       1112.43420      -2.27671218    
  -44.2565308      -1.56226599      -20.0000000       1195.26697      -2.08211732    
  -42.7509499      -1.56253600      -20.0000000       1195.26697      -2.08211732    
  -42.7563400      -3.12513494      -20.0000000       1195.26697      -2.08211732    
  -44.2611694      -3.12488103      -20.0000000       1195.26697      -2.08211732    
  -44.2565308      -1.56226599      -20.0000000       1243.71399      -1.96539342    
  -45.7603798      -1.56126106      -20.0000000       1243.71399      -1.96539342    
  -45.7582893       0.00000000      -20.0000000       1243.71399      -1.96539342    
  -44.2515602       0.00000000      -20.0000000       1243.71399      -1.96539342    
  -45.7582893       0.00000000      -20.0000000       1254.81201      -1.90000081    
  -47.2657204       0.00000000      -20.0000000       1254.81201      -1.90000081    
  -47.2535896       1.55706894      -20.0000000       1254.81201      -1.90000081    
  -45.7509003       1.56100297      -20.0000000       1254.81201      -1.90000081    
  -47.2535896       1.55706894      -20.0000000       1230.75171      -1.88153338    
  -48.7560692       1.53868604      -20.0000000       1230.75171      -1.88153338    
  -48.7281189       3.10503101      -20.0000000       1230.75171      -1.88153338    
  -47.2370110       3.11982203      -20.0000000       1230.75171      -1.88153338    
  -48.7281189       3.10503101      -20.0000000       1177.47742      -1.92172420    
  -50.2011604       3.04989505      -20.0000000       1177.47742      -1.92172420    
  -50.2067184       4.64797401      -20.0000000       1177.47742      -1.92172420    
  -48.7241211       4.67746210      -20.0000000       1177.47742      -1.92172420    
  -50.2067184       4.64797401      -20.0000000       1109.23926      -2.07643723    
  -51.6648903       4.56408405      -20.0000000       1109.23926      -2.07643723    
  -51.7500000       6.25000000      -20.0000000       1109.23926      -2.07643723    
  -50.2455711       6.25000000      -20.0000000       1109.23926      -2.07643723    
  -38.2494698      -6.25000000      -20.0000000       1050.33447      -2.73029995    
  -39.7556496      -6.25000000      -20.0000000       1050.33447      -2.73029995    
  -39.7507591      -4.68851089      -20.0000000       1050.33447      -2.73029995    
  -38.2446404      -4.68936491      -20.0000000       1050.33447      -2.73029995    
  -39.7507591      -4.68851089      -20.0000000       1124.26758      -2.36176085    
  -41.2566490      -4.68782711      -20.0000000       1124.26758      -2.36176085    
  -41.2511406      -3.12541890      -20.0000000       1124.26758      -2.36176085    
  -39.7453995      -3.12673903      -20.0000000       1124.26758      -2.36176085    
  -41.2511406      -3.12541890      -20.0000000       1196.88464      -2.16095376    
  -42.7563400      -3.12513494      -20.0000000       1196.88464      -2.16095376    
  -42.7509499      -1.56253600      -20.0000000       1196.88464      -2.16095376    
  -41.2455711      -1.56282198      -20.0000000       1196.88464      -2.16095376    
  -44.2515602       0.00000000      -20.0000000       1238.32788      -2.03765202    
  -42.7457504       0.00000000      -20.0000000       1238.32788      -2.03765202    
  -42.7509499      -1.56253600      -20.0000000       1238.32788      -2.03765202    
  -44.2565308      -1.56226599      -20.0000000       1238.32788      -2.03765202    
  -44.2515602       0.00000000      -20.0000000       1243.63232      -1.96568525    
  -45.7582893       0.00000000      -20.0000000       1243.63232      -1.96568525    
  -45.7509003       1.56100297      -20.0000000       1243.63232      -1.96568525    
  -44.2452011       1.56199801      -20.0000000       1243.63232      -1.96568525    
  -45.7509003       1.56100297      -20.0000000       1212.78088      -1.94090545    
  -47.2535896       1.55706894      -20.0000000       1212.78088      -1.94090545    
  -47.2370110       3.11982203      -20.0000000       1212.78088      -1.94090545    
  -45.7402802       3.12332392      -20.0000000       1212.78088      -1.94090545    
  -47.2370110       3.11982203      -20.0000000       1149.05542      -1.97650754    
  -48.7281189       3.10503101      -20.0000000       1149.05542      -1.97650754    
  -48.7241211       4.67746210      -20.0000000       1149.05542      -1.97650754    
  -47.2300911       4.68496799      -20.0000000       1149.05542      -1.97650754    
  -48.7241211       4.67746210      -20.0000000       1061.68176      -2.13330221    
  -50.2067184       4.64797401      -20.0000000       1061.68176      -2.13330221    
  -50.2455711       6.25000000      -20.0000000       1061.68176      -2.13330221    
  -48.7411499       6.25000000      -20.0000000       1061.68176      -2.13330221    
  -36.7432899      -6.25000000      -20.0000000       1087.40796      -2.81016088    
  -38.2494698      -6.25000000      -20.0000000       1087.40796      -2.81016088    
  -38.2446404      -4.68936491      -20.0000000       1087.40796      -2.81016088    
  -36.7384796      -4.68897390      -20.0000000       1087.40796      -2.81016088    
  -38.2446404      -4.68936491      -20.0000000       1144.45630      -2.44601798    
  -39.7507591      -4.68851089      -20.0000000       1144.45630      -2.44601798    
  -39.7453995      -3.12673903      -20.0000000       1144.45630      -2.44601798    
  -38.2396507      -3.12933803      -20.0000000       1144.45630      -2.44601798    
  -39.7453995      -3.12673903      -20.0000000       1205.99927      -2.24223852    
  -41.2511406      -3.12541890      -20.0000000       1205.99927      -2.24223852    
  -41.2455711      -1.56282198      -20.0000000       1205.99927      -2.24223852    
  -39.7399902      -1.56351995      -20.0000000       1205.99927      -2.24223852    
  -41.2455711      -1.56282198      -20.0000000       1239.68201      -2.11444855    
  -42.7509499      -1.56253600      -20.0000000       1239.68201      -2.11444855    
  -42.7457504       0.00000000      -20.0000000       1239.68201      -2.11444855    
  -41.2401695       0.00000000      -20.0000000       1239.68201      -2.11444855    
  -44.2452011       1.56199801      -20.0000000       1238.24426      -2.03802347    
  -42.7402611       1.56238496      -20.0000000       1238.24426      -2.03802347    
  -42.7457504       0.00000000      -20.0000000       1238.24426      -2.03802347    
  -44.2515602       0.00000000      -20.0000000       1238.24426      -2.03802347    
  -44.2452011       1.56199801      -20.0000000       1200.56152      -2.00882459    
  -45.7509003       1.56100297      -20.0000000       1200.56152      -2.00882459    
  -45.7402802       3.12332392      -20.0000000       1200.56152      -2.00882459    
  -44.2380295       3.12447906      -20.0000000       1200.56152      -2.00882459    
  -45.7402802       3.12332392      -20.0000000       1127.88013      -2.04157305    
  -47.2370110       3.11982203      -20.0000000       1127.88013      -2.04157305    
  -47.2300911       4.68496799      -20.0000000       1127.88013      -2.04157305    
  -45.7329903       4.68700409      -20.0000000       1127.88013      -2.04157305    
  -47.2300911       4.68496799      -20.0000000       1026.17480      -2.20385551    
  -48.7241211       4.67746210      -20.0000000       1026.17480      -2.20385551    
  -48.7411499       6.25000000      -20.0000000       1026.17480      -2.20385551    
  -47.2367287       6.25000000      -20.0000000       1026.17480      -2.20385551    
  -35.2371101      -6.25000000      -20.0000000       1130.32349      -2.88335514    
  -36.7432899      -6.25000000      -20.0000000       1130.32349      -2.88335514    
  -36.7384796      -4.68897390      -20.0000000       1130.32349      -2.88335514    
  -35.2325211      -4.68835878      -20.0000000       1130.32349      -2.88335514    
  -36.7384796      -4.68897390      -20.0000000       1172.24219      -2.52783203    
  -38.2446404      -4.68936491      -20.0000000       1172.24219      -2.52783203    
  -38.2396507      -3.12933803      -20.0000000       1172.24219      -2.52783203    
  -36.7339096      -3.12783909      -20.0000000       1172.24219      -2.52783203    
  -38.2396507      -3.12933803      -20.0000000       1222.77441      -2.32396293    
  -39.7453995      -3.12673903      -20.0000000       1222.77441      -2.32396293    
  -39.7399902      -1.56351995      -20.0000000       1222.77441      -2.32396293    
  -38.2346497      -1.56438303      -20.0000000       1222.77441      -2.32396293    
  -39.7399902      -1.56351995      -20.0000000       1247.91541      -2.19410443    
  -41.2455711      -1.56282198      -20.0000000       1247.91541      -2.19410443    
  -41.2401695       0.00000000      -20.0000000       1247.91541      -2.19410443    