 VARIABLES="X" "Y" "Z" "abs(p) (Pa)" "angle(p) (rad)"
ZONE N=   3650,E =    3624, F=FEPOINT, ET=QUADRILATERAL
  -56.5164909      -2.47323704      -20.0000000       29.9008007       1.88938189    
  -55.4176407      -3.26747894      -20.0000000       29.9008007       1.88938189    
  -55.9264717      -4.64953518      -20.0000000       29.9008007       1.88938189    
  -56.9148483      -3.51935697      -20.0000000       29.9008007       1.88938189    
  -56.9148483      -3.51935697      -20.0000000       29.9180260       1.85035753    
  -57.6058807      -2.18402195      -20.0000000       29.9180260       1.85035753    
  -56.5164909      -2.47323704      -20.0000000       29.9180260       1.85035753    
  -56.5164909      -2.47323704      -20.0000000       29.9180260       1.85035753    
  -54.6953812      -5.51239681      -20.0000000       31.0061092       1.93366325    
  -55.9264717      -4.64953518      -20.0000000       31.0061092       1.93366325    
  -55.4176407      -3.26747894      -20.0000000       31.0061092       1.93366325    
  -54.2450790      -3.94889998      -20.0000000       31.0061092       1.93366325    
  -54.2450790      -3.94889998      -20.0000000       32.6052589       1.96216691    
  -52.9834785      -4.46340179      -20.0000000       32.6052589       1.96216691    
  -53.2955093      -6.05576801      -20.0000000       32.6052589       1.96216691    
  -54.6953812      -5.51239681      -20.0000000       32.6052589       1.96216691    
  -56.5223999      -1.11500299      -20.0000000       28.1888256       1.83322084    
  -56.5164909      -2.47323704      -20.0000000       28.1888256       1.83322084    
  -57.6058807      -2.18402195      -20.0000000       28.1888256       1.83322084    
  -57.9577713     -0.724482894      -20.0000000       28.1888256       1.83322084    
  -56.5164909      -2.47323704      -20.0000000       26.5540352       1.90577877    
  -56.5223999      -1.11500299      -20.0000000       26.5540352       1.90577877    
  -55.1657600      -1.76926601      -20.0000000       26.5540352       1.90577877    
  -55.4176407      -3.26747894      -20.0000000       26.5540352       1.90577877    
  -54.2450790      -3.94889998      -20.0000000       27.0984631       1.97587824    
  -55.4176407      -3.26747894      -20.0000000       27.0984631       1.97587824    
  -55.1657600      -1.76926601      -20.0000000       27.0984631       1.97587824    
  -53.8819199      -2.32836604      -20.0000000       27.0984631       1.97587824    
  -52.9834785      -4.46340179      -20.0000000       34.3326607       1.96578813    
  -51.6155815      -4.69134283      -20.0000000       34.3326607       1.96578813    
  -51.8049088      -6.24783087      -20.0000000       34.3326607       1.96578813    
  -53.2955093      -6.05576801      -20.0000000       34.3326607       1.96578813    
  -56.3964119      0.254809886      -20.0000000       27.4939556       1.82490277    
  -56.5223999      -1.11500299      -20.0000000       27.4939556       1.82490277    
  -57.9577713     -0.724482894      -20.0000000       27.4939556       1.82490277    
  -57.9511719      0.779103875      -20.0000000       27.4939556       1.82490277    
  -53.8819199      -2.32836604      -20.0000000       28.7346172       2.01509953    
  -52.7235603      -2.92538095      -20.0000000       28.7346172       2.01509953    
  -52.9834785      -4.46340179      -20.0000000       28.7346172       2.01509953    
  -54.2450790      -3.94889998      -20.0000000       28.7346172       2.01509953    
  -56.5223999      -1.11500299      -20.0000000       25.3095226       1.91799808    
  -56.3964119      0.254809886      -20.0000000       25.3095226       1.91799808    
  -54.8835487     -0.325594515      -20.0000000       25.3095226       1.91799808    
  -55.1657600      -1.76926601      -20.0000000       25.3095226       1.91799808    
  -50.2990494      -6.25000000      -20.0000000       35.8295326       1.94092929    
  -51.8049088      -6.24783087      -20.0000000       35.8295326       1.94092929    
  -51.6155815      -4.69134283      -20.0000000       35.8295326       1.94092929    
  -50.1911316      -4.70199823      -20.0000000       35.8295326       1.94092929    
  -53.8819199      -2.32836604      -20.0000000       25.6852646       2.00981045    
  -55.1657600      -1.76926601      -20.0000000       25.6852646       2.00981045    
  -54.8835487     -0.325594515      -20.0000000       25.6852646       2.00981045    
  -53.3087082     -0.726661325      -20.0000000       25.6852646       2.00981045    
  -52.7235603      -2.92538095      -20.0000000       30.7806931       2.01932025    
  -51.4683685      -3.18431592      -20.0000000       30.7806931       2.01932025    
  -51.6155815      -4.69134283      -20.0000000       30.7806931       2.01932025    
  -52.9834785      -4.46340179      -20.0000000       30.7806931       2.01932025    
  -56.1067696       1.60355306      -20.0000000       27.6780128       1.83808744    
  -56.3964119      0.254809886      -20.0000000       27.6780128       1.83808744    
  -57.9511719      0.779103875      -20.0000000       27.6780128       1.83808744    
  -57.5863686       2.23558092      -20.0000000       27.6780128       1.83808744    
  -56.3964119      0.254809886      -20.0000000       25.2034721       1.93430007    
  -56.1067696       1.60355306      -20.0000000       25.2034721       1.93430007    
  -54.6488190       1.11988902      -20.0000000       25.2034721       1.93430007    
  -54.8835487     -0.325594515      -20.0000000       25.2034721       1.93430007    
  -51.8859215      -1.67511594      -20.0000000       27.5165348       2.05002475    
  -52.7235603      -2.92538095      -20.0000000       27.5165348       2.05002475    
  -53.8819199      -2.32836604      -20.0000000       27.5165348       2.05002475    
  -53.3087082     -0.726661325      -20.0000000       27.5165348       2.05002475    
  -48.7928200      -6.25000000      -20.0000000       36.8086624       1.88771272    
  -50.2990494      -6.25000000      -20.0000000       36.8086624       1.88771272    
  -50.1911316      -4.70199823      -20.0000000       36.8086624       1.88771272    
  -48.7387619      -4.69004917      -20.0000000       36.8086624       1.88771272    
  -50.1911316      -4.70199823      -20.0000000       32.6351204       1.99009633    
  -51.6155815      -4.69134283      -20.0000000       32.6351204       1.99009633    
  -51.4683685      -3.18431592      -20.0000000       32.6351204       1.99009633    
  -50.1564102      -3.12996602      -20.0000000       32.6351204       1.99009633    
  -54.6488190       1.11988902      -20.0000000       25.5771637       2.02788067    
  -53.2043991       1.01675200      -20.0000000       25.5771637       2.02788067    
  -53.3087082     -0.726661325      -20.0000000       25.5771637       2.02788067    
  -54.8835487     -0.325594515      -20.0000000       25.5771637       2.02788067    
  -51.4683685      -3.18431592      -20.0000000       29.3770466       2.04242826    
  -52.7235603      -2.92538095      -20.0000000       29.3770466       2.04242826    
  -51.8859215      -1.67511594      -20.0000000       29.3770466       2.04242826    
  -51.8859215      -1.67511594      -20.0000000       29.3770466       2.04242826    
  -55.6295395       2.91055298      -20.0000000       28.6589375       1.86876178    
  -56.1067696       1.60355306      -20.0000000       28.6589375       1.86876178    
  -57.5863686       2.23558092      -20.0000000       28.6589375       1.86876178    
  -56.8836594       3.56473303      -20.0000000       28.6589375       1.86876178    
  -47.2866096      -6.25000000      -20.0000000       36.8553925       1.81338143    
  -48.7928200      -6.25000000      -20.0000000       36.8553925       1.81338143    
  -48.7387619      -4.69004917      -20.0000000       36.8553925       1.81338143    
  -47.2626686      -4.68801212      -20.0000000       36.8553925       1.81338143    
  -48.7387619      -4.69004917      -20.0000000       33.8796883       1.92986214    
  -50.1911316      -4.70199823      -20.0000000       33.8796883       1.92986214    
  -50.1564102      -3.12996602      -20.0000000       33.8796883       1.92986214    
  -48.7254105      -3.12169194      -20.0000000       33.8796883       1.92986214    
  -50.1564102      -3.12996602      -20.0000000       30.8263035       2.02088475    
  -51.4683685      -3.18431592      -20.0000000       30.8263035       2.02088475    
  -51.8859215      -1.67511594      -20.0000000       30.8263035       2.02088475    
  -50.2854195      -1.59545600      -20.0000000       30.8263035       2.02088475    
  -54.6488190       1.11988902      -20.0000000       26.1079521       1.95203936    
  -56.1067696       1.60355306      -20.0000000       26.1079521       1.95203936    
  -55.6295395       2.91055298      -20.0000000       26.1079521       1.95203936    
  -54.3531990       2.57653904      -20.0000000       26.1079521       1.95203936    
  -51.7686501     -0.191007897      -20.0000000       27.8309860       2.06173348    
  -51.8859215      -1.67511594      -20.0000000       27.8309860       2.06173348    
  -53.3087082     -0.726661325      -20.0000000       27.8309860       2.06173348    
  -53.3087082     -0.726661325      -20.0000000       27.8309860       2.06173348    
  -51.7686501     -0.191007897      -20.0000000       27.4762707       2.06330538    
  -53.3087082     -0.726661325      -20.0000000       27.4762707       2.06330538    
  -53.2043991       1.01675200      -20.0000000       27.4762707       2.06330538    
  -51.7500000       1.29565406      -20.0000000       27.4762707       2.06330538    
  -53.0367393       2.70281792      -20.0000000       26.4575291       2.02808475    
  -53.2043991       1.01675200      -20.0000000       26.4575291       2.02808475    
  -54.6488190       1.11988902      -20.0000000       26.4575291       2.02808475    
  -54.3531990       2.57653904      -20.0000000       26.4575291       2.02808475    
  -45.7804108      -6.25000000      -20.0000000       35.6002884       1.72985327    
  -47.2866096      -6.25000000      -20.0000000       35.6002884       1.72985327    
  -47.2626686      -4.68801212      -20.0000000       35.6002884       1.72985327    
  -45.7679100      -4.68779421      -20.0000000       35.6002884       1.72985327    
  -47.2626686      -4.68801212      -20.0000000       34.1172447       1.84465432    
  -48.7387619      -4.69004917      -20.0000000       34.1172447       1.84465432    
  -48.7254105      -3.12169194      -20.0000000       34.1172447       1.84465432    
  -47.2550507      -3.12222195      -20.0000000       34.1172447       1.84465432    
  -54.5736809       4.04919481      -20.0000000       30.0513039       1.90958607    
  -55.6295395       2.91055298      -20.0000000       30.0513039       1.90958607    
  -56.8836594       3.56473303      -20.0000000       30.0513039       1.90958607    
  -55.8850899       4.68635893      -20.0000000       30.0513039       1.90958607    
  -48.7254105      -3.12169194      -20.0000000       32.3846588       1.95370209    
  -50.1564102      -3.12996602      -20.0000000       32.3846588       1.95370209    
  -50.2854195      -1.59545600      -20.0000000       32.3846588       1.95370209    
  -48.7658615      -1.56390297      -20.0000000       32.3846588       1.95370209    
  -50.2854195      -1.59545600      -20.0000000       29.9090996       2.03674483    
  -51.8859215      -1.67511594      -20.0000000       29.9090996       2.03674483    
  -51.7686501     -0.191007897      -20.0000000       29.9090996       2.03674483    
  -50.2816200      -7.23225027E-02  -20.0000000       29.9090996       2.03674483    
  -55.6295395       2.91055298      -20.0000000       27.5938206       1.96180153    
  -54.5736809       4.04919481      -20.0000000       27.5938206       1.96180153    
  -54.3531990       2.57653904      -20.0000000       27.5938206       1.96180153    
  -54.3531990       2.57653904      -20.0000000       27.5938206       1.96180153    
  -51.6464691       2.90894699      -20.0000000       28.3232460       2.05295444    
  -51.7500000       1.29565406      -20.0000000       28.3232460       2.05295444    
  -53.2043991       1.01675200      -20.0000000       28.3232460       2.05295444    
  -53.0367393       2.70281792      -20.0000000       28.3232460       2.05295444    
  -44.2742119      -6.25000000      -20.0000000       32.9511414       1.65017724    
  -45.7804108      -6.25000000      -20.0000000       32.9511414       1.65017724    
  -45.7679100      -4.68779421      -20.0000000       32.9511414       1.65017724    
  -44.2670212      -4.68766403      -20.0000000       32.9511414       1.65017724    
  -45.7679100      -4.68779421      -20.0000000       32.8668480       1.74816823    
  -47.2626686      -4.68801212      -20.0000000       32.8668480       1.74816823    
  -47.2550507      -3.12222195      -20.0000000       32.8668480       1.74816823    
  -45.7611885      -3.12411094      -20.0000000       32.8668480       1.74816823    
  -51.7500000       1.29565406      -20.0000000       29.8684731       2.03659868    
  -50.2459984       1.47492099      -20.0000000       29.8684731       2.03659868    
  -50.2816200      -7.23225027E-02  -20.0000000       29.8684731       2.03659868    
  -51.7686501     -0.191007897      -20.0000000       29.8684731       2.03659868    
  -47.2550507      -3.12222195      -20.0000000       32.7869453       1.86152923    
  -48.7254105      -3.12169194      -20.0000000       32.7869453       1.86152923    
  -48.7658615      -1.56390297      -20.0000000       32.7869453       1.86152923    
  -47.2643318      -1.55986798      -20.0000000       32.7869453       1.86152923    
  -48.7658615      -1.56390297      -20.0000000       31.6520481       1.96615434    
  -50.2854195      -1.59545600      -20.0000000       31.6520481       1.96615434    
  -50.2816200      -7.23225027E-02  -20.0000000       31.6520481       1.96615434    
  -48.7753716      -1.42937005E-02  -20.0000000       31.6520481       1.96615434    
  -54.5736809       4.04919481      -20.0000000       28.4532833       2.00702572    
  -53.0954399       4.36336088      -20.0000000       28.4532833       2.00702572    
  -53.0367393       2.70281792      -20.0000000       28.4532833       2.00702572    
  -54.3531990       2.57653904      -20.0000000       28.4532833       2.00702572    
  -54.6465797       5.53822613      -20.0000000       32.4137955       1.92781544    
  -54.5736809       4.04919481      -20.0000000       32.4137955       1.92781544    
  -55.8850899       4.68635893      -20.0000000       32.4137955       1.92781544    
  -55.8850899       4.68635893      -20.0000000       32.4137955       1.92781544    
  -44.2670212      -4.68766403      -20.0000000       29.0739040       1.59088862    
  -42.7620697      -4.68767691      -20.0000000       29.0739040       1.59088862    
  -42.7680206      -6.25000000      -20.0000000       29.0739040       1.59088862    
  -44.2742119      -6.25000000      -20.0000000       29.0739040       1.59088862    
  -44.2670212      -4.68766403      -20.0000000       30.0291348       1.65357602    
  -45.7679100      -4.68779421      -20.0000000       30.0291348       1.65357602    
  -45.7611885      -3.12411094      -20.0000000       30.0291348       1.65357602    
  -44.2611694      -3.12488103      -20.0000000       30.0291348       1.65357602    
  -45.7611885      -3.12411094      -20.0000000       31.5894928       1.75827575    
  -47.2550507      -3.12222195      -20.0000000       31.5894928       1.75827575    
  -47.2643318      -1.55986798      -20.0000000       31.5894928       1.75827575    
  -45.7603798      -1.56126106      -20.0000000       31.5894928       1.75827575    
  -50.2459984       1.47492099      -20.0000000       30.6491261       2.02387667    
  -51.7500000       1.29565406      -20.0000000       30.6491261       2.02387667    
  -51.6464691       2.90894699      -20.0000000       30.6491261       2.02387667    
  -50.2011604       3.04989505      -20.0000000       30.6491261       2.02387667    
  -54.6465797       5.53822613      -20.0000000       32.4623299       1.96140909    
  -53.2416306       6.06926107      -20.0000000       32.4623299       1.96140909    
  -53.0954399       4.36336088      -20.0000000       32.4623299       1.96140909    
  -54.5736809       4.04919481      -20.0000000       32.4623299       1.96140909    
  -47.2643318      -1.55986798      -20.0000000       32.1716728       1.86992633    
  -48.7658615      -1.56390297      -20.0000000       32.1716728       1.86992633    
  -48.7753716      -1.42937005E-02  -20.0000000       32.1716728       1.86992633    
  -47.2657204       0.00000000      -20.0000000       32.1716728       1.86992633    
  -48.7753716      -1.42937005E-02  -20.0000000       31.6471615       1.96587050    
  -50.2816200      -7.23225027E-02  -20.0000000       31.6471615       1.96587050    
  -50.2459984       1.47492099      -20.0000000       31.6471615       1.96587050    
  -48.7560692       1.53868604      -20.0000000       31.6471615       1.96587050    
  -51.6464691       2.90894699      -20.0000000       30.2419548       2.02477336    
  -53.0367393       2.70281792      -20.0000000       30.2419548       2.02477336    
  -53.0954399       4.36336088      -20.0000000       30.2419548       2.02477336    
  -51.6648903       4.56408405      -20.0000000       30.2419548       2.02477336    
  -41.2618294      -6.25000000      -20.0000000       24.4253044       1.57443511    
  -42.7680206      -6.25000000      -20.0000000       24.4253044       1.57443511    
  -42.7620697      -4.68767691      -20.0000000       24.4253044       1.57443511    
  -41.2566490      -4.68782711      -20.0000000       24.4253044       1.57443511    
  -44.2611694      -3.12488103      -20.0000000       25.8427982       1.57729137    
  -42.7563400      -3.12513494      -20.0000000       25.8427982       1.57729137    
  -42.7620697      -4.68767691      -20.0000000       25.8427982       1.57729137    
  -44.2670212      -4.68766403      -20.0000000       25.8427982       1.57729137    
  -44.2611694      -3.12488103      -20.0000000       28.7129898       1.65664339    
  -45.7611885      -3.12411094      -20.0000000       28.7129898       1.65664339    
  -45.7603798      -1.56126106      -20.0000000       28.7129898       1.65664339    
  -44.2565308      -1.56226599      -20.0000000       28.7129898       1.65664339    
  -45.7603798      -1.56126106      -20.0000000       31.0299797       1.76332116    
  -47.2643318      -1.55986798      -20.0000000       31.0299797       1.76332116    
  -47.2657204       0.00000000      -20.0000000       31.0299797       1.76332116    
  -45.7582893       0.00000000      -20.0000000       31.0299797       1.76332116    
  -47.2657204       0.00000000      -20.0000000       32.1729622       1.86974227    
  -48.7753716      -1.42937005E-02  -20.0000000       32.1729622       1.86974227    
  -48.7560692       1.53868604      -20.0000000       32.1729622       1.86974227    
  -47.2535896       1.55706894      -20.0000000       32.1729622       1.86974227    
  -48.7560692       1.53868604      -20.0000000       32.3610954       1.95437551    
  -50.2459984       1.47492099      -20.0000000       32.3610954       1.95437551    
  -50.2011604       3.04989505      -20.0000000       32.3610954       1.95437551    
  -48.7281189       3.10503101      -20.0000000       32.3610954       1.95437551    
  -50.2011604       3.04989505      -20.0000000       32.3511734       1.99612653    
  -51.6464691       2.90894699      -20.0000000       32.3511734       1.99612653    
  -51.6648903       4.56408405      -20.0000000       32.3511734       1.99612653    
  -50.2067184       4.64797401      -20.0000000       32.3511734       1.99612653    
  -51.6648903       4.56408405      -20.0000000       34.1121979       1.96867514    
  -53.0954399       4.36336088      -20.0000000       34.1121979       1.96867514    
  -53.2416306       6.06926107      -20.0000000       34.1121979       1.96867514    
  -51.7500000       6.25000000      -20.0000000       34.1121979       1.96867514    
  -39.7556496      -6.25000000      -20.0000000       19.7504196       1.63322604    
  -41.2618294      -6.25000000      -20.0000000       19.7504196       1.63322604    
  -41.2566490      -4.68782711      -20.0000000       19.7504196       1.63322604    
  -39.7507591      -4.68851089      -20.0000000       19.7504196       1.63322604    
  -41.2566490      -4.68782711      -20.0000000       20.9095039       1.54581130    
  -42.7620697      -4.68767691      -20.0000000       20.9095039       1.54581130    
  -42.7563400      -3.12513494      -20.0000000       20.9095039       1.54581130    
  -41.2511406      -3.12541890      -20.0000000       20.9095039       1.54581130    
  -44.2565308      -1.56226599      -20.0000000       24.4369354       1.57243025    
  -42.7509499      -1.56253600      -20.0000000       24.4369354       1.57243025    
  -42.7563400      -3.12513494      -20.0000000       24.4369354       1.57243025    
  -44.2611694      -3.12488103      -20.0000000       24.4369354       1.57243025    
  -44.2565308      -1.56226599      -20.0000000       28.1455956       1.65861070    
  -45.7603798      -1.56126106      -20.0000000       28.1455956       1.65861070    
  -45.7582893       0.00000000      -20.0000000       28.1455956       1.65861070    
  -44.2515602       0.00000000      -20.0000000       28.1455956       1.65861070    
  -45.7582893       0.00000000      -20.0000000       31.0229359       1.76304495    
  -47.2657204       0.00000000      -20.0000000       31.0229359       1.76304495    
  -47.2535896       1.55706894      -20.0000000       31.0229359       1.76304495    
  -45.7509003       1.56100297      -20.0000000       31.0229359       1.76304495    
  -47.2535896       1.55706894      -20.0000000       32.7901840       1.86131513    
  -48.7560692       1.53868604      -20.0000000       32.7901840       1.86131513    
  -48.7281189       3.10503101      -20.0000000       32.7901840       1.86131513    
  -47.2370110       3.11982203      -20.0000000       32.7901840       1.86131513    
  -48.7281189       3.10503101      -20.0000000       33.8491478       1.93147492    
  -50.2011604       3.04989505      -20.0000000       33.8491478       1.93147492    
  -50.2067184       4.64797401      -20.0000000       33.8491478       1.93147492    
  -48.7241211       4.67746210      -20.0000000       33.8491478       1.93147492    
  -50.2067184       4.64797401      -20.0000000       35.7255211       1.94315922    
  -51.6648903       4.56408405      -20.0000000       35.7255211       1.94315922    
  -51.7500000       6.25000000      -20.0000000       35.7255211       1.94315922    
  -50.2455711       6.25000000      -20.0000000       35.7255211       1.94315922    
  -38.2494698      -6.25000000      -20.0000000       16.0770245       1.79883814    
  -39.7556496      -6.25000000      -20.0000000       16.0770245       1.79883814    
  -39.7507591      -4.68851089      -20.0000000       16.0770245       1.79883814    
  -38.2446404      -4.68936491      -20.0000000       16.0770245       1.79883814    
  -39.7507591      -4.68851089      -20.0000000       16.1112251       1.60536408    
  -41.2566490      -4.68782711      -20.0000000       16.1112251       1.60536408    
  -41.2511406      -3.12541890      -20.0000000       16.1112251       1.60536408    
  -39.7453995      -3.12673903      -20.0000000       16.1112251       1.60536408    
  -41.2511406      -3.12541890      -20.0000000       19.4086895       1.53263044    
  -42.7563400      -3.12513494      -20.0000000       19.4086895       1.53263044    
  -42.7509499      -1.56253600      -20.0000000       19.4086895       1.53263044    
  -41.2455711      -1.56282198      -20.0000000       19.4086895       1.53263044    
  -44.2515602       0.00000000      -20.0000000       23.8508549       1.57097578    
  -42.7457504       0.00000000      -20.0000000       23.8508549       1.57097578    
  -42.7509499      -1.56253600      -20.0000000       23.8508549       1.57097578    
  -44.2565308      -1.56226599      -20.0000000       23.8508549       1.57097578    
  -44.2515602       0.00000000      -20.0000000       28.1342926       1.65836275    
  -45.7582893       0.00000000      -20.0000000       28.1342926       1.65836275    
  -45.7509003       1.56100297      -20.0000000       28.1342926       1.65836275    
  -44.2452011       1.56199801      -20.0000000       28.1342926       1.65836275    
  -45.7509003       1.56100297      -20.0000000       31.5678654       1.75758612    
  -47.2535896       1.55706894      -20.0000000       31.5678654       1.75758612    
  -47.2370110       3.11982203      -20.0000000       31.5678654       1.75758612    
  -45.7402802       3.12332392      -20.0000000       31.5678654       1.75758612    
  -47.2370110       3.11982203      -20.0000000       34.1185608       1.84416270    
  -48.7281189       3.10503101      -20.0000000       34.1185608       1.84416270    
  -48.7241211       4.67746210      -20.0000000       34.1185608       1.84416270    
  -47.2300911       4.68496799      -20.0000000       34.1185608       1.84416270    
  -48.7241211       4.67746210      -20.0000000       36.8039513       1.88769209    
  -50.2067184       4.64797401      -20.0000000       36.8039513       1.88769209    
  -50.2455711       6.25000000      -20.0000000       36.8039513       1.88769209    
  -48.7411499       6.25000000      -20.0000000       36.8039513       1.88769209    
  -36.7432899      -6.25000000      -20.0000000       14.3645754       2.04363155    
  -38.2494698      -6.25000000      -20.0000000       14.3645754       2.04363155    
  -38.2446404      -4.68936491      -20.0000000       14.3645754       2.04363155    
  -36.7384796      -4.68897390      -20.0000000       14.3645754       2.04363155    
  -38.2446404      -4.68936491      -20.0000000       12.7107058       1.80951118    
  -39.7507591      -4.68851089      -20.0000000       12.7107058       1.80951118    
  -39.7453995      -3.12673903      -20.0000000       12.7107058       1.80951118    
  -38.2396507      -3.12933803      -20.0000000       12.7107058       1.80951118    
  -39.7453995      -3.12673903      -20.0000000       14.5784693       1.59110928    
  -41.2511406      -3.12541890      -20.0000000       14.5784693       1.59110928    
  -41.2455711      -1.56282198      -20.0000000       14.5784693       1.59110928    
  -39.7399902      -1.56351995      -20.0000000       14.5784693       1.59110928    
  -41.2455711      -1.56282198      -20.0000000       18.7958183       1.52764380    
  -42.7509499      -1.56253600      -20.0000000       18.7958183       1.52764380    
  -42.7457504       0.00000000      -20.0000000       18.7958183       1.52764380    
  -41.2401695       0.00000000      -20.0000000       18.7958183       1.52764380    
  -44.2452011       1.56199801      -20.0000000       23.8351879       1.57079184    
  -42.7402611       1.56238496      -20.0000000       23.8351879       1.57079184    
  -42.7457504       0.00000000      -20.0000000       23.8351879       1.57079184    
  -44.2515602       0.00000000      -20.0000000       23.8351879       1.57079184    
  -44.2452011       1.56199801      -20.0000000       28.6618843       1.65600348    
  -45.7509003       1.56100297      -20.0000000       28.6618843       1.65600348    
  -45.7402802       3.12332392      -20.0000000       28.6618843       1.65600348    
  -44.2380295       3.12447906      -20.0000000       28.6618843       1.65600348    
  -45.7402802       3.12332392      -20.0000000       32.8387070       1.74673188    
  -47.2370110       3.11982203      -20.0000000       32.8387070       1.74673188    
  -47.2300911       4.68496799      -20.0000000       32.8387070       1.74673188    
  -45.7329903       4.68700409      -20.0000000       32.8387070       1.74673188    
  -47.2300911       4.68496799      -20.0000000       36.8437691       1.81189406    
  -48.7241211       4.67746210      -20.0000000       36.8437691       1.81189406    
  -48.7411499       6.25000000      -20.0000000       36.8437691       1.81189406    
  -47.2367287       6.25000000      -20.0000000       36.8437691       1.81189406    
  -35.2371101      -6.25000000      -20.0000000       14.4502268       2.24688911    
  -36.7432899      -6.25000000      -20.0000000       14.4502268       2.24688911    
  -36.7384796      -4.68897390      -20.0000000       14.4502268       2.24688911    
  -35.2325211      -4.68835878      -20.0000000       14.4502268       2.24688911    
  -36.7384796      -4.68897390      -20.0000000       11.8473272       2.10337329    
  -38.2446404      -4.68936491      -20.0000000       11.8473272       2.10337329    
  -38.2396507      -3.12933803      -20.0000000       11.8473272       2.10337329    
  -36.7339096      -3.12783909      -20.0000000       11.8473272       2.10337329    
  -38.2396507      -3.12933803      -20.0000000       11.3031178       1.81541228    
  -39.7453995      -3.12673903      -20.0000000       11.3031178       1.81541228    
  -39.7399902      -1.56351995      -20.0000000       11.3031178       1.81541228    
  -38.2346497      -1.56438303      -20.0000000       11.3031178       1.81541228    
  -39.7399902      -1.56351995      -20.0000000       13.9621563       1.58518326    
  -41.2455711      -1.56282198      -20.0000000       13.9621563       1.58518326    
  -41.2401695       0.00000000      -20.0000000       13.9621563       1.58518326    