 VARIABLES="X" "Y" "Z" "abs(p) (Pa)" "angle(p) (rad)"
ZONE N=   3650,E =    3624, F=FEPOINT, ET=QUADRILATERAL
  -56.5164909      -2.47323704      -20.0000000       8.33291340      -1.04856515    
  -55.4176407      -3.26747894      -20.0000000       8.33291340      -1.04856515    
  -55.9264717      -4.64953518      -20.0000000       8.33291340      -1.04856515    
  -56.9148483      -3.51935697      -20.0000000       8.33291340      -1.04856515    
  -56.9148483      -3.51935697      -20.0000000       8.52665520      -1.16864038    
  -57.6058807      -2.18402195      -20.0000000       8.52665520      -1.16864038    
  -56.5164909      -2.47323704      -20.0000000       8.52665520      -1.16864038    
  -56.5164909      -2.47323704      -20.0000000       8.52665520      -1.16864038    
  -54.6953812      -5.51239681      -20.0000000       8.61971855     -0.882229924    
  -55.9264717      -4.64953518      -20.0000000       8.61971855     -0.882229924    
  -55.4176407      -3.26747894      -20.0000000       8.61971855     -0.882229924    
  -54.2450790      -3.94889998      -20.0000000       8.61971855     -0.882229924    
  -54.2450790      -3.94889998      -20.0000000       9.23717499     -0.739305794    
  -52.9834785      -4.46340179      -20.0000000       9.23717499     -0.739305794    
  -53.2955093      -6.05576801      -20.0000000       9.23717499     -0.739305794    
  -54.6953812      -5.51239681      -20.0000000       9.23717499     -0.739305794    
  -56.5223999      -1.11500299      -20.0000000       8.34233475      -1.23613191    
  -56.5164909      -2.47323704      -20.0000000       8.34233475      -1.23613191    
  -57.6058807      -2.18402195      -20.0000000       8.34233475      -1.23613191    
  -57.9577713     -0.724482894      -20.0000000       8.34233475      -1.23613191    
  -56.5164909      -2.47323704      -20.0000000       7.71942663      -1.10899961    
  -56.5223999      -1.11500299      -20.0000000       7.71942663      -1.10899961    
  -55.1657600      -1.76926601      -20.0000000       7.71942663      -1.10899961    
  -55.4176407      -3.26747894      -20.0000000       7.71942663      -1.10899961    
  -54.2450790      -3.94889998      -20.0000000       7.70207548     -0.945195496    
  -55.4176407      -3.26747894      -20.0000000       7.70207548     -0.945195496    
  -55.1657600      -1.76926601      -20.0000000       7.70207548     -0.945195496    
  -53.8819199      -2.32836604      -20.0000000       7.70207548     -0.945195496    
  -52.9834785      -4.46340179      -20.0000000       9.84697151     -0.647313952    
  -51.6155815      -4.69134283      -20.0000000       9.84697151     -0.647313952    
  -51.8049088      -6.24783087      -20.0000000       9.84697151     -0.647313952    
  -53.2955093      -6.05576801      -20.0000000       9.84697151     -0.647313952    
  -56.3964119      0.254809886      -20.0000000       8.44244576      -1.25702941    
  -56.5223999      -1.11500299      -20.0000000       8.44244576      -1.25702941    
  -57.9577713     -0.724482894      -20.0000000       8.44244576      -1.25702941    
  -57.9511719      0.779103875      -20.0000000       8.44244576      -1.25702941    
  -53.8819199      -2.32836604      -20.0000000       8.05626583     -0.800709248    
  -52.7235603      -2.92538095      -20.0000000       8.05626583     -0.800709248    
  -52.9834785      -4.46340179      -20.0000000       8.05626583     -0.800709248    
  -54.2450790      -3.94889998      -20.0000000       8.05626583     -0.800709248    
  -56.5223999      -1.11500299      -20.0000000       7.61311054      -1.14295948    
  -56.3964119      0.254809886      -20.0000000       7.61311054      -1.14295948    
  -54.8835487     -0.325594515      -20.0000000       7.61311054      -1.14295948    
  -55.1657600      -1.76926601      -20.0000000       7.61311054      -1.14295948    
  -50.2990494      -6.25000000      -20.0000000       10.1391649     -0.606510758    
  -51.8049088      -6.24783087      -20.0000000       10.1391649     -0.606510758    
  -51.6155815      -4.69134283      -20.0000000       10.1391649     -0.606510758    
  -50.1911316      -4.70199823      -20.0000000       10.1391649     -0.606510758    
  -53.8819199      -2.32836604      -20.0000000       7.34558916     -0.992488563    
  -55.1657600      -1.76926601      -20.0000000       7.34558916     -0.992488563    
  -54.8835487     -0.325594515      -20.0000000       7.34558916     -0.992488563    
  -53.3087082     -0.726661325      -20.0000000       7.34558916     -0.992488563    
  -52.7235603      -2.92538095      -20.0000000       8.47778702     -0.703860521    
  -51.4683685      -3.18431592      -20.0000000       8.47778702     -0.703860521    
  -51.6155815      -4.69134283      -20.0000000       8.47778702     -0.703860521    
  -52.9834785      -4.46340179      -20.0000000       8.47778702     -0.703860521    
  -56.1067696       1.60355306      -20.0000000       8.69365501      -1.19918358    
  -56.3964119      0.254809886      -20.0000000       8.69365501      -1.19918358    
  -57.9511719      0.779103875      -20.0000000       8.69365501      -1.19918358    
  -57.5863686       2.23558092      -20.0000000       8.69365501      -1.19918358    
  -56.3964119      0.254809886      -20.0000000       7.80201006      -1.10572970    
  -56.1067696       1.60355306      -20.0000000       7.80201006      -1.10572970    
  -54.6488190       1.11988902      -20.0000000       7.80201006      -1.10572970    
  -54.8835487     -0.325594515      -20.0000000       7.80201006      -1.10572970    
  -51.8859215      -1.67511594      -20.0000000       7.42514992     -0.859997392    
  -52.7235603      -2.92538095      -20.0000000       7.42514992     -0.859997392    
  -53.8819199      -2.32836604      -20.0000000       7.42514992     -0.859997392    
  -53.3087082     -0.726661325      -20.0000000       7.42514992     -0.859997392    
  -48.7928200      -6.25000000      -20.0000000       10.0532913     -0.605766237    
  -50.2990494      -6.25000000      -20.0000000       10.0532913     -0.605766237    
  -50.1911316      -4.70199823      -20.0000000       10.0532913     -0.605766237    
  -48.7387619      -4.69004917      -20.0000000       10.0532913     -0.605766237    
  -50.1911316      -4.70199823      -20.0000000       8.59984016     -0.666873574    
  -51.6155815      -4.69134283      -20.0000000       8.59984016     -0.666873574    
  -51.4683685      -3.18431592      -20.0000000       8.59984016     -0.666873574    
  -50.1564102      -3.12996602      -20.0000000       8.59984016     -0.666873574    
  -54.6488190       1.11988902      -20.0000000       7.41507912     -0.984642088    
  -53.2043991       1.01675200      -20.0000000       7.41507912     -0.984642088    
  -53.3087082     -0.726661325      -20.0000000       7.41507912     -0.984642088    
  -54.8835487     -0.325594515      -20.0000000       7.41507912     -0.984642088    
  -51.4683685      -3.18431592      -20.0000000       7.72239685     -0.773415625    
  -52.7235603      -2.92538095      -20.0000000       7.72239685     -0.773415625    
  -51.8859215      -1.67511594      -20.0000000       7.72239685     -0.773415625    
  -51.8859215      -1.67511594      -20.0000000       7.72239685     -0.773415625    
  -55.6295395       2.91055298      -20.0000000       9.11762333      -1.08225894    
  -56.1067696       1.60355306      -20.0000000       9.11762333      -1.08225894    
  -57.5863686       2.23558092      -20.0000000       9.11762333      -1.08225894    
  -56.8836594       3.56473303      -20.0000000       9.11762333      -1.08225894    
  -47.2866096      -6.25000000      -20.0000000       9.65595341     -0.634256065    
  -48.7928200      -6.25000000      -20.0000000       9.65595341     -0.634256065    
  -48.7387619      -4.69004917      -20.0000000       9.65595341     -0.634256065    
  -47.2626686      -4.68801212      -20.0000000       9.65595341     -0.634256065    
  -48.7387619      -4.69004917      -20.0000000       8.35888863     -0.680652797    
  -50.1911316      -4.70199823      -20.0000000       8.35888863     -0.680652797    
  -50.1564102      -3.12996602      -20.0000000       8.35888863     -0.680652797    
  -48.7254105      -3.12169194      -20.0000000       8.35888863     -0.680652797    
  -50.1564102      -3.12996602      -20.0000000       7.55199480     -0.765217781    
  -51.4683685      -3.18431592      -20.0000000       7.55199480     -0.765217781    
  -51.8859215      -1.67511594      -20.0000000       7.55199480     -0.765217781    
  -50.2854195      -1.59545600      -20.0000000       7.55199480     -0.765217781    
  -54.6488190       1.11988902      -20.0000000       8.27085400      -1.00877166    
  -56.1067696       1.60355306      -20.0000000       8.27085400      -1.00877166    
  -55.6295395       2.91055298      -20.0000000       8.27085400      -1.00877166    
  -54.3531990       2.57653904      -20.0000000       8.27085400      -1.00877166    
  -51.7686501     -0.191007897      -20.0000000       7.21076965     -0.870934784    
  -51.8859215      -1.67511594      -20.0000000       7.21076965     -0.870934784    
  -53.3087082     -0.726661325      -20.0000000       7.21076965     -0.870934784    
  -53.3087082     -0.726661325      -20.0000000       7.21076965     -0.870934784    
  -51.7686501     -0.191007897      -20.0000000       7.25764847     -0.893752456    
  -53.3087082     -0.726661325      -20.0000000       7.25764847     -0.893752456    
  -53.2043991       1.01675200      -20.0000000       7.25764847     -0.893752456    
  -51.7500000       1.29565406      -20.0000000       7.25764847     -0.893752456    
  -53.0367393       2.70281792      -20.0000000       7.92672443     -0.914074659    
  -53.2043991       1.01675200      -20.0000000       7.92672443     -0.914074659    
  -54.6488190       1.11988902      -20.0000000       7.92672443     -0.914074659    
  -54.3531990       2.57653904      -20.0000000       7.92672443     -0.914074659    
  -45.7804108      -6.25000000      -20.0000000       9.06119728     -0.680363119    
  -47.2866096      -6.25000000      -20.0000000       9.06119728     -0.680363119    
  -47.2626686      -4.68801212      -20.0000000       9.06119728     -0.680363119    
  -45.7679100      -4.68779421      -20.0000000       9.06119728     -0.680363119    
  -47.2626686      -4.68801212      -20.0000000       7.88209581     -0.731236637    
  -48.7387619      -4.69004917      -20.0000000       7.88209581     -0.731236637    
  -48.7254105      -3.12169194      -20.0000000       7.88209581     -0.731236637    
  -47.2550507      -3.12222195      -20.0000000       7.88209581     -0.731236637    
  -54.5736809       4.04919481      -20.0000000       9.69557667     -0.936034024    
  -55.6295395       2.91055298      -20.0000000       9.69557667     -0.936034024    
  -56.8836594       3.56473303      -20.0000000       9.69557667     -0.936034024    
  -55.8850899       4.68635893      -20.0000000       9.69557667     -0.936034024    
  -48.7254105      -3.12169194      -20.0000000       7.23340368     -0.791966796    
  -50.1564102      -3.12996602      -20.0000000       7.23340368     -0.791966796    
  -50.2854195      -1.59545600      -20.0000000       7.23340368     -0.791966796    
  -48.7658615      -1.56390297      -20.0000000       7.23340368     -0.791966796    
  -50.2854195      -1.59545600      -20.0000000       7.04498196     -0.845100284    
  -51.8859215      -1.67511594      -20.0000000       7.04498196     -0.845100284    
  -51.7686501     -0.191007897      -20.0000000       7.04498196     -0.845100284    
  -50.2816200      -7.23225027E-02  -20.0000000       7.04498196     -0.845100284    
  -55.6295395       2.91055298      -20.0000000       8.90776443     -0.908677876    
  -54.5736809       4.04919481      -20.0000000       8.90776443     -0.908677876    
  -54.3531990       2.57653904      -20.0000000       8.90776443     -0.908677876    
  -54.3531990       2.57653904      -20.0000000       8.90776443     -0.908677876    
  -51.6464691       2.90894699      -20.0000000       7.75634813     -0.839552164    
  -51.7500000       1.29565406      -20.0000000       7.75634813     -0.839552164    
  -53.2043991       1.01675200      -20.0000000       7.75634813     -0.839552164    
  -53.0367393       2.70281792      -20.0000000       7.75634813     -0.839552164    
  -44.2742119      -6.25000000      -20.0000000       8.36648464     -0.732432961    
  -45.7804108      -6.25000000      -20.0000000       8.36648464     -0.732432961    
  -45.7679100      -4.68779421      -20.0000000       8.36648464     -0.732432961    
  -44.2670212      -4.68766403      -20.0000000       8.36648464     -0.732432961    
  -45.7679100      -4.68779421      -20.0000000       7.27112532     -0.804098070    
  -47.2626686      -4.68801212      -20.0000000       7.27112532     -0.804098070    
  -47.2550507      -3.12222195      -20.0000000       7.27112532     -0.804098070    
  -45.7611885      -3.12411094      -20.0000000       7.27112532     -0.804098070    
  -51.7500000       1.29565406      -20.0000000       6.99628019     -0.866871834    
  -50.2459984       1.47492099      -20.0000000       6.99628019     -0.866871834    
  -50.2816200      -7.23225027E-02  -20.0000000       6.99628019     -0.866871834    
  -51.7686501     -0.191007897      -20.0000000       6.99628019     -0.866871834    
  -47.2550507      -3.12222195      -20.0000000       6.74239731     -0.867123783    
  -48.7254105      -3.12169194      -20.0000000       6.74239731     -0.867123783    
  -48.7658615      -1.56390297      -20.0000000       6.74239731     -0.867123783    
  -47.2643318      -1.55986798      -20.0000000       6.74239731     -0.867123783    
  -48.7658615      -1.56390297      -20.0000000       6.63936090     -0.887309313    
  -50.2854195      -1.59545600      -20.0000000       6.63936090     -0.887309313    
  -50.2816200      -7.23225027E-02  -20.0000000       6.63936090     -0.887309313    
  -48.7753716      -1.42937005E-02  -20.0000000       6.63936090     -0.887309313    
  -54.5736809       4.04919481      -20.0000000       8.91890812     -0.819416583    
  -53.0954399       4.36336088      -20.0000000       8.91890812     -0.819416583    
  -53.0367393       2.70281792      -20.0000000       8.91890812     -0.819416583    
  -54.3531990       2.57653904      -20.0000000       8.91890812     -0.819416583    
  -54.6465797       5.53822613      -20.0000000       10.4339991     -0.836187303    
  -54.5736809       4.04919481      -20.0000000       10.4339991     -0.836187303    
  -55.8850899       4.68635893      -20.0000000       10.4339991     -0.836187303    
  -55.8850899       4.68635893      -20.0000000       10.4339991     -0.836187303    
  -44.2670212      -4.68766403      -20.0000000       7.65542841     -0.779671192    
  -42.7620697      -4.68767691      -20.0000000       7.65542841     -0.779671192    
  -42.7680206      -6.25000000      -20.0000000       7.65542841     -0.779671192    
  -44.2742119      -6.25000000      -20.0000000       7.65542841     -0.779671192    
  -44.2670212      -4.68766403      -20.0000000       6.65266991     -0.876011372    
  -45.7679100      -4.68779421      -20.0000000       6.65266991     -0.876011372    
  -45.7611885      -3.12411094      -20.0000000       6.65266991     -0.876011372    
  -44.2611694      -3.12488103      -20.0000000       6.65266991     -0.876011372    
  -45.7611885      -3.12411094      -20.0000000       6.20671368     -0.968028128    
  -47.2550507      -3.12222195      -20.0000000       6.20671368     -0.968028128    
  -47.2643318      -1.55986798      -20.0000000       6.20671368     -0.968028128    
  -45.7603798      -1.56126106      -20.0000000       6.20671368     -0.968028128    
  -50.2459984       1.47492099      -20.0000000       7.44540262     -0.817421198    
  -51.7500000       1.29565406      -20.0000000       7.44540262     -0.817421198    
  -51.6464691       2.90894699      -20.0000000       7.44540262     -0.817421198    
  -50.2011604       3.04989505      -20.0000000       7.44540262     -0.817421198    
  -54.6465797       5.53822613      -20.0000000       10.3950644     -0.755546451    
  -53.2416306       6.06926107      -20.0000000       10.3950644     -0.755546451    
  -53.0954399       4.36336088      -20.0000000       10.3950644     -0.755546451    
  -54.5736809       4.04919481      -20.0000000       10.3950644     -0.755546451    
  -47.2643318      -1.55986798      -20.0000000       6.13147593     -0.987844825    
  -48.7658615      -1.56390297      -20.0000000       6.13147593     -0.987844825    
  -48.7753716      -1.42937005E-02  -20.0000000       6.13147593     -0.987844825    
  -47.2657204       0.00000000      -20.0000000       6.13147593     -0.987844825    
  -48.7753716      -1.42937005E-02  -20.0000000       6.52263451     -0.917228639    
  -50.2816200      -7.23225027E-02  -20.0000000       6.52263451     -0.917228639    
  -50.2459984       1.47492099      -20.0000000       6.52263451     -0.917228639    
  -48.7560692       1.53868604      -20.0000000       6.52263451     -0.917228639    
  -51.6464691       2.90894699      -20.0000000       8.79477692     -0.751326680    
  -53.0367393       2.70281792      -20.0000000       8.79477692     -0.751326680    
  -53.0954399       4.36336088      -20.0000000       8.79477692     -0.751326680    
  -51.6648903       4.56408405      -20.0000000       8.79477692     -0.751326680    
  -41.2618294      -6.25000000      -20.0000000       6.97779655     -0.815037906    
  -42.7680206      -6.25000000      -20.0000000       6.97779655     -0.815037906    
  -42.7620697      -4.68767691      -20.0000000       6.97779655     -0.815037906    
  -41.2566490      -4.68782711      -20.0000000       6.97779655     -0.815037906    
  -44.2611694      -3.12488103      -20.0000000       6.09135580     -0.924637794    
  -42.7563400      -3.12513494      -20.0000000       6.09135580     -0.924637794    
  -42.7620697      -4.68767691      -20.0000000       6.09135580     -0.924637794    
  -44.2670212      -4.68766403      -20.0000000       6.09135580     -0.924637794    
  -44.2611694      -3.12488103      -20.0000000       5.70953321      -1.05442131    
  -45.7611885      -3.12411094      -20.0000000       5.70953321      -1.05442131    
  -45.7603798      -1.56126106      -20.0000000       5.70953321      -1.05442131    
  -44.2565308      -1.56226599      -20.0000000       5.70953321      -1.05442131    
  -45.7603798      -1.56126106      -20.0000000       5.65737581      -1.11332822    
  -47.2643318      -1.55986798      -20.0000000       5.65737581      -1.11332822    
  -47.2657204       0.00000000      -20.0000000       5.65737581      -1.11332822    
  -45.7582893       0.00000000      -20.0000000       5.65737581      -1.11332822    
  -47.2657204       0.00000000      -20.0000000       5.97004795      -1.03064013    
  -48.7753716      -1.42937005E-02  -20.0000000       5.97004795      -1.03064013    
  -48.7560692       1.53868604      -20.0000000       5.97004795      -1.03064013    
  -47.2535896       1.55706894      -20.0000000       5.97004795      -1.03064013    
  -48.7560692       1.53868604      -20.0000000       6.88822412     -0.865036786    
  -50.2459984       1.47492099      -20.0000000       6.88822412     -0.865036786    
  -50.2011604       3.04989505      -20.0000000       6.88822412     -0.865036786    
  -48.7281189       3.10503101      -20.0000000       6.88822412     -0.865036786    
  -50.2011604       3.04989505      -20.0000000       8.44107533     -0.733209312    
  -51.6464691       2.90894699      -20.0000000       8.44107533     -0.733209312    
  -51.6648903       4.56408405      -20.0000000       8.44107533     -0.733209312    
  -50.2067184       4.64797401      -20.0000000       8.44107533     -0.733209312    
  -51.6648903       4.56408405      -20.0000000       10.4191179     -0.693141222    
  -53.0954399       4.36336088      -20.0000000       10.4191179     -0.693141222    
  -53.2416306       6.06926107      -20.0000000       10.4191179     -0.693141222    
  -51.7500000       6.25000000      -20.0000000       10.4191179     -0.693141222    
  -39.7556496      -6.25000000      -20.0000000       6.35881090     -0.837466657    
  -41.2618294      -6.25000000      -20.0000000       6.35881090     -0.837466657    
  -41.2566490      -4.68782711      -20.0000000       6.35881090     -0.837466657    
  -39.7507591      -4.68851089      -20.0000000       6.35881090     -0.837466657    
  -41.2566490      -4.68782711      -20.0000000       5.60119581     -0.939155519    
  -42.7620697      -4.68767691      -20.0000000       5.60119581     -0.939155519    
  -42.7563400      -3.12513494      -20.0000000       5.60119581     -0.939155519    
  -41.2511406      -3.12541890      -20.0000000       5.60119581     -0.939155519    
  -44.2565308      -1.56226599      -20.0000000       5.26746273      -1.09839702    
  -42.7509499      -1.56253600      -20.0000000       5.26746273      -1.09839702    
  -42.7563400      -3.12513494      -20.0000000       5.26746273      -1.09839702    
  -44.2611694      -3.12488103      -20.0000000       5.26746273      -1.09839702    
  -44.2565308      -1.56226599      -20.0000000       5.25591135      -1.21098709    
  -45.7603798      -1.56126106      -20.0000000       5.25591135      -1.21098709    
  -45.7582893       0.00000000      -20.0000000       5.25591135      -1.21098709    
  -44.2515602       0.00000000      -20.0000000       5.25591135      -1.21098709    
  -45.7582893       0.00000000      -20.0000000       5.49423361      -1.17005444    
  -47.2657204       0.00000000      -20.0000000       5.49423361      -1.17005444    
  -47.2535896       1.55706894      -20.0000000       5.49423361      -1.17005444    
  -45.7509003       1.56100297      -20.0000000       5.49423361      -1.17005444    
  -47.2535896       1.55706894      -20.0000000       6.22943544     -0.974214435    
  -48.7560692       1.53868604      -20.0000000       6.22943544     -0.974214435    
  -48.7281189       3.10503101      -20.0000000       6.22943544     -0.974214435    
  -47.2370110       3.11982203      -20.0000000       6.22943544     -0.974214435    
  -48.7281189       3.10503101      -20.0000000       7.79600763     -0.771341443    
  -50.2011604       3.04989505      -20.0000000       7.79600763     -0.771341443    
  -50.2067184       4.64797401      -20.0000000       7.79600763     -0.771341443    
  -48.7241211       4.67746210      -20.0000000       7.79600763     -0.771341443    
  -50.2067184       4.64797401      -20.0000000       10.0702162     -0.675791800    
  -51.6648903       4.56408405      -20.0000000       10.0702162     -0.675791800    
  -51.7500000       6.25000000      -20.0000000       10.0702162     -0.675791800    
  -50.2455711       6.25000000      -20.0000000       10.0702162     -0.675791800    
  -38.2494698      -6.25000000      -20.0000000       5.80382204     -0.850667536    
  -39.7556496      -6.25000000      -20.0000000       5.80382204     -0.850667536    
  -39.7507591      -4.68851089      -20.0000000       5.80382204     -0.850667536    
  -38.2446404      -4.68936491      -20.0000000       5.80382204     -0.850667536    
  -39.7507591      -4.68851089      -20.0000000       5.18271112     -0.924732864    
  -41.2566490      -4.68782711      -20.0000000       5.18271112     -0.924732864    
  -41.2511406      -3.12541890      -20.0000000       5.18271112     -0.924732864    
  -39.7453995      -3.12673903      -20.0000000       5.18271112     -0.924732864    
  -41.2511406      -3.12541890      -20.0000000       4.87319326      -1.08658302    
  -42.7563400      -3.12513494      -20.0000000       4.87319326      -1.08658302    
  -42.7509499      -1.56253600      -20.0000000       4.87319326      -1.08658302    
  -41.2455711      -1.56282198      -20.0000000       4.87319326      -1.08658302    
  -44.2515602       0.00000000      -20.0000000       4.88069153      -1.24754131    
  -42.7457504       0.00000000      -20.0000000       4.88069153      -1.24754131    
  -42.7509499      -1.56253600      -20.0000000       4.88069153      -1.24754131    
  -44.2565308      -1.56226599      -20.0000000       4.88069153      -1.24754131    
  -44.2515602       0.00000000      -20.0000000       5.11870098      -1.27513969    
  -45.7582893       0.00000000      -20.0000000       5.11870098      -1.27513969    
  -45.7509003       1.56100297      -20.0000000       5.11870098      -1.27513969    
  -44.2452011       1.56199801      -20.0000000       5.11870098      -1.27513969    
  -45.7509003       1.56100297      -20.0000000       5.65707302      -1.11200762    
  -47.2535896       1.55706894      -20.0000000       5.65707302      -1.11200762    
  -47.2370110       3.11982203      -20.0000000       5.65707302      -1.11200762    
  -45.7402802       3.12332392      -20.0000000       5.65707302      -1.11200762    
  -47.2370110       3.11982203      -20.0000000       7.00713634     -0.860273004    
  -48.7281189       3.10503101      -20.0000000       7.00713634     -0.860273004    
  -48.7241211       4.67746210      -20.0000000       7.00713634     -0.860273004    
  -47.2300911       4.68496799      -20.0000000       7.00713634     -0.860273004    
  -48.7241211       4.67746210      -20.0000000       9.39302063     -0.699424028    
  -50.2067184       4.64797401      -20.0000000       9.39302063     -0.699424028    
  -50.2455711       6.25000000      -20.0000000       9.39302063     -0.699424028    
  -48.7411499       6.25000000      -20.0000000       9.39302063     -0.699424028    
  -36.7432899      -6.25000000      -20.0000000       5.30014801     -0.860464871    
  -38.2494698      -6.25000000      -20.0000000       5.30014801     -0.860464871    
  -38.2446404      -4.68936491      -20.0000000       5.30014801     -0.860464871    
  -36.7384796      -4.68897390      -20.0000000       5.30014801     -0.860464871    
  -38.2446404      -4.68936491      -20.0000000       4.82614326     -0.896070898    
  -39.7507591      -4.68851089      -20.0000000       4.82614326     -0.896070898    
  -39.7453995      -3.12673903      -20.0000000       4.82614326     -0.896070898    
  -38.2396507      -3.12933803      -20.0000000       4.82614326     -0.896070898    
  -39.7453995      -3.12673903      -20.0000000       4.54197836      -1.03263271    
  -41.2511406      -3.12541890      -20.0000000       4.54197836      -1.03263271    
  -41.2455711      -1.56282198      -20.0000000       4.54197836      -1.03263271    
  -39.7399902      -1.56351995      -20.0000000       4.54197836      -1.03263271    
  -41.2455711      -1.56282198      -20.0000000       4.51897717      -1.21371365    
  -42.7509499      -1.56253600      -20.0000000       4.51897717      -1.21371365    
  -42.7457504       0.00000000      -20.0000000       4.51897717      -1.21371365    
  -41.2401695       0.00000000      -20.0000000       4.51897717      -1.21371365    
  -44.2452011       1.56199801      -20.0000000       4.76641655      -1.31136179    
  -42.7402611       1.56238496      -20.0000000       4.76641655      -1.31136179    
  -42.7457504       0.00000000      -20.0000000       4.76641655      -1.31136179    
  -44.2515602       0.00000000      -20.0000000       4.76641655      -1.31136179    
  -44.2452011       1.56199801      -20.0000000       5.22438717      -1.22111607    
  -45.7509003       1.56100297      -20.0000000       5.22438717      -1.22111607    
  -45.7402802       3.12332392      -20.0000000       5.22438717      -1.22111607    
  -44.2380295       3.12447906      -20.0000000       5.22438717      -1.22111607    
  -45.7402802       3.12332392      -20.0000000       6.27972794     -0.976355493    
  -47.2370110       3.11982203      -20.0000000       6.27972794     -0.976355493    
  -47.2300911       4.68496799      -20.0000000       6.27972794     -0.976355493    
  -45.7329903       4.68700409      -20.0000000       6.27972794     -0.976355493    
  -47.2300911       4.68496799      -20.0000000       8.53750515     -0.758544207    
  -48.7241211       4.67746210      -20.0000000       8.53750515     -0.758544207    
  -48.7411499       6.25000000      -20.0000000       8.53750515     -0.758544207    
  -47.2367287       6.25000000      -20.0000000       8.53750515     -0.758544207    
  -35.2371101      -6.25000000      -20.0000000       4.82945204     -0.871490300    
  -36.7432899      -6.25000000      -20.0000000       4.82945204     -0.871490300    
  -36.7384796      -4.68897390      -20.0000000       4.82945204     -0.871490300    
  -35.2325211      -4.68835878      -20.0000000       4.82945204     -0.871490300    
  -36.7384796      -4.68897390      -20.0000000       4.50823927     -0.868969381    
  -38.2446404      -4.68936491      -20.0000000       4.50823927     -0.868969381    
  -38.2396507      -3.12933803      -20.0000000       4.50823927     -0.868969381    
  -36.7339096      -3.12783909      -20.0000000       4.50823927     -0.868969381    
  -38.2396507      -3.12933803      -20.0000000       4.28092766     -0.961719453    
  -39.7453995      -3.12673903      -20.0000000       4.28092766     -0.961719453    
  -39.7399902      -1.56351995      -20.0000000       4.28092766     -0.961719453    
  -38.2346497      -1.56438303      -20.0000000       4.28092766     -0.961719453    
  -39.7399902      -1.56351995      -20.0000000       4.21298218      -1.12813127    
  -41.2455711      -1.56282198      -20.0000000       4.21298218      -1.12813127    
  -41.2401695       0.00000000      -20.0000000       4.21298218      -1.12813127    