 VARIABLES="X" "Y" "Z" "abs(p) (Pa)" "angle(p) (rad)"
ZONE N=   3650,E =    3624, F=FEPOINT, ET=QUADRILATERAL
  -56.5164909      -2.47323704      -20.0000000       1678.07825       1.55260623    
  -55.4176407      -3.26747894      -20.0000000       1678.07825       1.55260623    
  -55.9264717      -4.64953518      -20.0000000       1678.07825       1.55260623    
  -56.9148483      -3.51935697      -20.0000000       1678.07825       1.55260623    
  -56.9148483      -3.51935697      -20.0000000       1664.60083       1.55752456    
  -57.6058807      -2.18402195      -20.0000000       1664.60083       1.55752456    
  -56.5164909      -2.47323704      -20.0000000       1664.60083       1.55752456    
  -56.5164909      -2.47323704      -20.0000000       1664.60083       1.55752456    
  -54.6953812      -5.51239681      -20.0000000       1948.80249       1.54992056    
  -55.9264717      -4.64953518      -20.0000000       1948.80249       1.54992056    
  -55.4176407      -3.26747894      -20.0000000       1948.80249       1.54992056    
  -54.2450790      -3.94889998      -20.0000000       1948.80249       1.54992056    
  -54.2450790      -3.94889998      -20.0000000       2283.10840       1.54932177    
  -52.9834785      -4.46340179      -20.0000000       2283.10840       1.54932177    
  -53.2955093      -6.05576801      -20.0000000       2283.10840       1.54932177    
  -54.6953812      -5.51239681      -20.0000000       2283.10840       1.54932177    
  -56.5223999      -1.11500299      -20.0000000       705.770386       1.55773485    
  -56.5164909      -2.47323704      -20.0000000       705.770386       1.55773485    
  -57.6058807      -2.18402195      -20.0000000       705.770386       1.55773485    
  -57.9577713     -0.724482894      -20.0000000       705.770386       1.55773485    
  -56.5164909      -2.47323704      -20.0000000       266.149292       1.51443958    
  -56.5223999      -1.11500299      -20.0000000       266.149292       1.51443958    
  -55.1657600      -1.76926601      -20.0000000       266.149292       1.51443958    
  -55.4176407      -3.26747894      -20.0000000       266.149292       1.51443958    
  -54.2450790      -3.94889998      -20.0000000       62.5420647       1.20332551    
  -55.4176407      -3.26747894      -20.0000000       62.5420647       1.20332551    
  -55.1657600      -1.76926601      -20.0000000       62.5420647       1.20332551    
  -53.8819199      -2.32836604      -20.0000000       62.5420647       1.20332551    
  -52.9834785      -4.46340179      -20.0000000       2596.78491       1.54969788    
  -51.6155815      -4.69134283      -20.0000000       2596.78491       1.54969788    
  -51.8049088      -6.24783087      -20.0000000       2596.78491       1.54969788    
  -53.2955093      -6.05576801      -20.0000000       2596.78491       1.54969788    
  -56.3964119      0.254809886      -20.0000000       51.6499100       1.68567979    
  -56.5223999      -1.11500299      -20.0000000       51.6499100       1.68567979    
  -57.9577713     -0.724482894      -20.0000000       51.6499100       1.68567979    
  -57.9511719      0.779103875      -20.0000000       51.6499100       1.68567979    
  -53.8819199      -2.32836604      -20.0000000       31.2435951     -0.343696862    
  -52.7235603      -2.92538095      -20.0000000       31.2435951     -0.343696862    
  -52.9834785      -4.46340179      -20.0000000       31.2435951     -0.343696862    
  -54.2450790      -3.94889998      -20.0000000       31.2435951     -0.343696862    
  -56.5223999      -1.11500299      -20.0000000      0.116520032      -2.06841874    
  -56.3964119      0.254809886      -20.0000000      0.116520032      -2.06841874    
  -54.8835487     -0.325594515      -20.0000000      0.116520032      -2.06841874    
  -55.1657600      -1.76926601      -20.0000000      0.116520032      -2.06841874    
  -50.2990494      -6.25000000      -20.0000000       2774.12988       1.55000103    
  -51.8049088      -6.24783087      -20.0000000       2774.12988       1.55000103    
  -51.6155815      -4.69134283      -20.0000000       2774.12988       1.55000103    
  -50.1911316      -4.70199823      -20.0000000       2774.12988       1.55000103    
  -53.8819199      -2.32836604      -20.0000000       191.635727      -1.54033601    
  -55.1657600      -1.76926601      -20.0000000       191.635727      -1.54033601    
  -54.8835487     -0.325594515      -20.0000000       191.635727      -1.54033601    
  -53.3087082     -0.726661325      -20.0000000       191.635727      -1.54033601    
  -52.7235603      -2.92538095      -20.0000000       37.7795753      0.407025397    
  -51.4683685      -3.18431592      -20.0000000       37.7795753      0.407025397    
  -51.6155815      -4.69134283      -20.0000000       37.7795753      0.407025397    
  -52.9834785      -4.46340179      -20.0000000       37.7795753      0.407025397    
  -56.1067696       1.60355306      -20.0000000       480.537689      -1.61445403    
  -56.3964119      0.254809886      -20.0000000       480.537689      -1.61445403    
  -57.9511719      0.779103875      -20.0000000       480.537689      -1.61445403    
  -57.5863686       2.23558092      -20.0000000       480.537689      -1.61445403    
  -56.3964119      0.254809886      -20.0000000       32.4899406       2.03584075    
  -56.1067696       1.60355306      -20.0000000       32.4899406       2.03584075    
  -54.6488190       1.11988902      -20.0000000       32.4899406       2.03584075    
  -54.8835487     -0.325594515      -20.0000000       32.4899406       2.03584075    
  -51.8859215      -1.67511594      -20.0000000       387.963989      -1.53848267    
  -52.7235603      -2.92538095      -20.0000000       387.963989      -1.53848267    
  -53.8819199      -2.32836604      -20.0000000       387.963989      -1.53848267    
  -53.3087082     -0.726661325      -20.0000000       387.963989      -1.53848267    
  -48.7928200      -6.25000000      -20.0000000       2889.42090       1.55031383    
  -50.2990494      -6.25000000      -20.0000000       2889.42090       1.55031383    
  -50.1911316      -4.70199823      -20.0000000       2889.42090       1.55031383    
  -48.7387619      -4.69004917      -20.0000000       2889.42090       1.55031383    
  -50.1911316      -4.70199823      -20.0000000       41.7986412      0.493398547    
  -51.6155815      -4.69134283      -20.0000000       41.7986412      0.493398547    
  -51.4683685      -3.18431592      -20.0000000       41.7986412      0.493398547    
  -50.1564102      -3.12996602      -20.0000000       41.7986412      0.493398547    
  -54.6488190       1.11988902      -20.0000000       72.9409027       1.71197641    
  -53.2043991       1.01675200      -20.0000000       72.9409027       1.71197641    
  -53.3087082     -0.726661325      -20.0000000       72.9409027       1.71197641    
  -54.8835487     -0.325594515      -20.0000000       72.9409027       1.71197641    
  -51.4683685      -3.18431592      -20.0000000       464.602173      -1.52627444    
  -52.7235603      -2.92538095      -20.0000000       464.602173      -1.52627444    
  -51.8859215      -1.67511594      -20.0000000       464.602173      -1.52627444    
  -51.8859215      -1.67511594      -20.0000000       464.602173      -1.52627444    
  -55.6295395       2.91055298      -20.0000000       1054.94092      -1.60469651    
  -56.1067696       1.60355306      -20.0000000       1054.94092      -1.60469651    
  -57.5863686       2.23558092      -20.0000000       1054.94092      -1.60469651    
  -56.8836594       3.56473303      -20.0000000       1054.94092      -1.60469651    
  -47.2866096      -6.25000000      -20.0000000       3028.38647       1.55079854    
  -48.7928200      -6.25000000      -20.0000000       3028.38647       1.55079854    
  -48.7387619      -4.69004917      -20.0000000       3028.38647       1.55079854    
  -47.2626686      -4.68801212      -20.0000000       3028.38647       1.55079854    
  -48.7387619      -4.69004917      -20.0000000       42.9504547      0.512709379    
  -50.1911316      -4.70199823      -20.0000000       42.9504547      0.512709379    
  -50.1564102      -3.12996602      -20.0000000       42.9504547      0.512709379    
  -48.7254105      -3.12169194      -20.0000000       42.9504547      0.512709379    
  -50.1564102      -3.12996602      -20.0000000       515.089355      -1.53470302    
  -51.4683685      -3.18431592      -20.0000000       515.089355      -1.53470302    
  -51.8859215      -1.67511594      -20.0000000       515.089355      -1.53470302    
  -50.2854195      -1.59545600      -20.0000000       515.089355      -1.53470302    
  -54.6488190       1.11988902      -20.0000000       29.9810085       2.91655850    
  -56.1067696       1.60355306      -20.0000000       29.9810085       2.91655850    
  -55.6295395       2.91055298      -20.0000000       29.9810085       2.91655850    
  -54.3531990       2.57653904      -20.0000000       29.9810085       2.91655850    
  -51.7686501     -0.191007897      -20.0000000       234.723831      -1.56356812    
  -51.8859215      -1.67511594      -20.0000000       234.723831      -1.56356812    
  -53.3087082     -0.726661325      -20.0000000       234.723831      -1.56356812    
  -53.3087082     -0.726661325      -20.0000000       234.723831      -1.56356812    
  -51.7686501     -0.191007897      -20.0000000       119.243645       1.66430008    
  -53.3087082     -0.726661325      -20.0000000       119.243645       1.66430008    
  -53.2043991       1.01675200      -20.0000000       119.243645       1.66430008    
  -51.7500000       1.29565406      -20.0000000       119.243645       1.66430008    
  -53.0367393       2.70281792      -20.0000000       316.298706       1.65660536    
  -53.2043991       1.01675200      -20.0000000       316.298706       1.65660536    
  -54.6488190       1.11988902      -20.0000000       316.298706       1.65660536    
  -54.3531990       2.57653904      -20.0000000       316.298706       1.65660536    
  -45.7804108      -6.25000000      -20.0000000       3162.44141       1.55125022    
  -47.2866096      -6.25000000      -20.0000000       3162.44141       1.55125022    
  -47.2626686      -4.68801212      -20.0000000       3162.44141       1.55125022    
  -45.7679100      -4.68779421      -20.0000000       3162.44141       1.55125022    
  -47.2626686      -4.68801212      -20.0000000       89.9904480       1.13130760    
  -48.7387619      -4.69004917      -20.0000000       89.9904480       1.13130760    
  -48.7254105      -3.12169194      -20.0000000       89.9904480       1.13130760    
  -47.2550507      -3.12222195      -20.0000000       89.9904480       1.13130760    
  -54.5736809       4.04919481      -20.0000000       1656.63477      -1.60080826    
  -55.6295395       2.91055298      -20.0000000       1656.63477      -1.60080826    
  -56.8836594       3.56473303      -20.0000000       1656.63477      -1.60080826    
  -55.8850899       4.68635893      -20.0000000       1656.63477      -1.60080826    
  -48.7254105      -3.12169194      -20.0000000       519.368835      -1.53459823    
  -50.1564102      -3.12996602      -20.0000000       519.368835      -1.53459823    
  -50.2854195      -1.59545600      -20.0000000       519.368835      -1.53459823    
  -48.7658615      -1.56390297      -20.0000000       519.368835      -1.53459823    
  -50.2854195      -1.59545600      -20.0000000       276.124237      -1.56268096    
  -51.8859215      -1.67511594      -20.0000000       276.124237      -1.56268096    
  -51.7686501     -0.191007897      -20.0000000       276.124237      -1.56268096    
  -50.2816200      -7.23225027E-02  -20.0000000       276.124237      -1.56268096    
  -55.6295395       2.91055298      -20.0000000       286.153717      -1.71740997    
  -54.5736809       4.04919481      -20.0000000       286.153717      -1.71740997    
  -54.3531990       2.57653904      -20.0000000       286.153717      -1.71740997    
  -54.3531990       2.57653904      -20.0000000       286.153717      -1.71740997    
  -51.6464691       2.90894699      -20.0000000       455.918365       1.63398981    
  -51.7500000       1.29565406      -20.0000000       455.918365       1.63398981    
  -53.2043991       1.01675200      -20.0000000       455.918365       1.63398981    
  -53.0367393       2.70281792      -20.0000000       455.918365       1.63398981    
  -44.2742119      -6.25000000      -20.0000000       3277.68188       1.55159068    
  -45.7804108      -6.25000000      -20.0000000       3277.68188       1.55159068    
  -45.7679100      -4.68779421      -20.0000000       3277.68188       1.55159068    
  -44.2670212      -4.68766403      -20.0000000       3277.68188       1.55159068    
  -45.7679100      -4.68779421      -20.0000000       161.403809       1.32580864    
  -47.2626686      -4.68801212      -20.0000000       161.403809       1.32580864    
  -47.2550507      -3.12222195      -20.0000000       161.403809       1.32580864    
  -45.7611885      -3.12411094      -20.0000000       161.403809       1.32580864    
  -51.7500000       1.29565406      -20.0000000       210.812149       1.63884497    
  -50.2459984       1.47492099      -20.0000000       210.812149       1.63884497    
  -50.2816200      -7.23225027E-02  -20.0000000       210.812149       1.63884497    
  -51.7686501     -0.191007897      -20.0000000       210.812149       1.63884497    
  -47.2550507      -3.12222195      -20.0000000       494.650879      -1.53168833    
  -48.7254105      -3.12169194      -20.0000000       494.650879      -1.53168833    
  -48.7658615      -1.56390297      -20.0000000       494.650879      -1.53168833    
  -47.2643318      -1.55986798      -20.0000000       494.650879      -1.53168833    
  -48.7658615      -1.56390297      -20.0000000       260.292114      -1.56480169    
  -50.2854195      -1.59545600      -20.0000000       260.292114      -1.56480169    
  -50.2816200      -7.23225027E-02  -20.0000000       260.292114      -1.56480169    
  -48.7753716      -1.42937005E-02  -20.0000000       260.292114      -1.56480169    
  -54.5736809       4.04919481      -20.0000000       61.4050331      -2.39006376    
  -53.0954399       4.36336088      -20.0000000       61.4050331      -2.39006376    
  -53.0367393       2.70281792      -20.0000000       61.4050331      -2.39006376    
  -54.3531990       2.57653904      -20.0000000       61.4050331      -2.39006376    
  -54.6465797       5.53822613      -20.0000000       2771.64136      -1.59304070    
  -54.5736809       4.04919481      -20.0000000       2771.64136      -1.59304070    
  -55.8850899       4.68635893      -20.0000000       2771.64136      -1.59304070    
  -55.8850899       4.68635893      -20.0000000       2771.64136      -1.59304070    
  -44.2670212      -4.68766403      -20.0000000       3372.30811       1.55180943    
  -42.7620697      -4.68767691      -20.0000000       3372.30811       1.55180943    
  -42.7680206      -6.25000000      -20.0000000       3372.30811       1.55180943    
  -44.2742119      -6.25000000      -20.0000000       3372.30811       1.55180943    
  -44.2670212      -4.68766403      -20.0000000       231.159332       1.39659142    
  -45.7679100      -4.68779421      -20.0000000       231.159332       1.39659142    
  -45.7611885      -3.12411094      -20.0000000       231.159332       1.39659142    
  -44.2611694      -3.12488103      -20.0000000       231.159332       1.39659142    
  -45.7611885      -3.12411094      -20.0000000       457.525177      -1.52730131    
  -47.2550507      -3.12222195      -20.0000000       457.525177      -1.52730131    
  -47.2643318      -1.55986798      -20.0000000       457.525177      -1.52730131    
  -45.7603798      -1.56126106      -20.0000000       457.525177      -1.52730131    
  -50.2459984       1.47492099      -20.0000000       522.079712       1.63088965    
  -51.7500000       1.29565406      -20.0000000       522.079712       1.63088965    
  -51.6464691       2.90894699      -20.0000000       522.079712       1.63088965    
  -50.2011604       3.04989505      -20.0000000       522.079712       1.63088965    
  -54.6465797       5.53822613      -20.0000000       2252.45117      -1.59944105    
  -53.2416306       6.06926107      -20.0000000       2252.45117      -1.59944105    
  -53.0954399       4.36336088      -20.0000000       2252.45117      -1.59944105    
  -54.5736809       4.04919481      -20.0000000       2252.45117      -1.59944105    
  -47.2643318      -1.55986798      -20.0000000       244.423874      -1.56445682    
  -48.7658615      -1.56390297      -20.0000000       244.423874      -1.56445682    
  -48.7753716      -1.42937005E-02  -20.0000000       244.423874      -1.56445682    
  -47.2657204       0.00000000      -20.0000000       244.423874      -1.56445682    
  -48.7753716      -1.42937005E-02  -20.0000000       242.364105       1.63486910    
  -50.2816200      -7.23225027E-02  -20.0000000       242.364105       1.63486910    
  -50.2459984       1.47492099      -20.0000000       242.364105       1.63486910    
  -48.7560692       1.53868604      -20.0000000       242.364105       1.63486910    
  -51.6464691       2.90894699      -20.0000000       117.546181       1.98780942    
  -53.0367393       2.70281792      -20.0000000       117.546181       1.98780942    
  -53.0954399       4.36336088      -20.0000000       117.546181       1.98780942    
  -51.6648903       4.56408405      -20.0000000       117.546181       1.98780942    
  -41.2618294      -6.25000000      -20.0000000       3451.77246       1.55196130    
  -42.7680206      -6.25000000      -20.0000000       3451.77246       1.55196130    
  -42.7620697      -4.68767691      -20.0000000       3451.77246       1.55196130    
  -41.2566490      -4.68782711      -20.0000000       3451.77246       1.55196130    
  -44.2611694      -3.12488103      -20.0000000       292.401978       1.43096244    
  -42.7563400      -3.12513494      -20.0000000       292.401978       1.43096244    
  -42.7620697      -4.68767691      -20.0000000       292.401978       1.43096244    
  -44.2670212      -4.68766403      -20.0000000       292.401978       1.43096244    
  -44.2611694      -3.12488103      -20.0000000       419.285187      -1.52210295    
  -45.7611885      -3.12411094      -20.0000000       419.285187      -1.52210295    
  -45.7603798      -1.56126106      -20.0000000       419.285187      -1.52210295    
  -44.2565308      -1.56226599      -20.0000000       419.285187      -1.52210295    
  -45.7603798      -1.56126106      -20.0000000       231.746918      -1.56330490    
  -47.2643318      -1.55986798      -20.0000000       231.746918      -1.56330490    
  -47.2657204       0.00000000      -20.0000000       231.746918      -1.56330490    
  -45.7582893       0.00000000      -20.0000000       231.746918      -1.56330490    
  -47.2657204       0.00000000      -20.0000000       247.622787       1.63590920    
  -48.7753716      -1.42937005E-02  -20.0000000       247.622787       1.63590920    
  -48.7560692       1.53868604      -20.0000000       247.622787       1.63590920    
  -47.2535896       1.55706894      -20.0000000       247.622787       1.63590920    
  -48.7560692       1.53868604      -20.0000000       528.003967       1.63351882    
  -50.2459984       1.47492099      -20.0000000       528.003967       1.63351882    
  -50.2011604       3.04989505      -20.0000000       528.003967       1.63351882    
  -48.7281189       3.10503101      -20.0000000       528.003967       1.63351882    
  -50.2011604       3.04989505      -20.0000000       104.566338       2.07095075    
  -51.6464691       2.90894699      -20.0000000       104.566338       2.07095075    
  -51.6648903       4.56408405      -20.0000000       104.566338       2.07095075    
  -50.2067184       4.64797401      -20.0000000       104.566338       2.07095075    
  -51.6648903       4.56408405      -20.0000000       2433.07007      -1.59930909    
  -53.0954399       4.36336088      -20.0000000       2433.07007      -1.59930909    
  -53.2416306       6.06926107      -20.0000000       2433.07007      -1.59930909    
  -51.7500000       6.25000000      -20.0000000       2433.07007      -1.59930909    
  -39.7556496      -6.25000000      -20.0000000       3518.63501       1.55203307    
  -41.2618294      -6.25000000      -20.0000000       3518.63501       1.55203307    
  -41.2566490      -4.68782711      -20.0000000       3518.63501       1.55203307    
  -39.7507591      -4.68851089      -20.0000000       3518.63501       1.55203307    
  -41.2566490      -4.68782711      -20.0000000       344.974213       1.45018089    
  -42.7620697      -4.68767691      -20.0000000       344.974213       1.45018089    
  -42.7563400      -3.12513494      -20.0000000       344.974213       1.45018089    
  -41.2511406      -3.12541890      -20.0000000       344.974213       1.45018089    
  -44.2565308      -1.56226599      -20.0000000       384.720184      -1.51637697    
  -42.7509499      -1.56253600      -20.0000000       384.720184      -1.51637697    
  -42.7563400      -3.12513494      -20.0000000       384.720184      -1.51637697    
  -44.2611694      -3.12488103      -20.0000000       384.720184      -1.51637697    
  -44.2565308      -1.56226599      -20.0000000       219.176407      -1.56229973    
  -45.7603798      -1.56126106      -20.0000000       219.176407      -1.56229973    
  -45.7582893       0.00000000      -20.0000000       219.176407      -1.56229973    
  -44.2515602       0.00000000      -20.0000000       219.176407      -1.56229973    
  -45.7582893       0.00000000      -20.0000000       242.458145       1.63801265    
  -47.2657204       0.00000000      -20.0000000       242.458145       1.63801265    
  -47.2535896       1.55706894      -20.0000000       242.458145       1.63801265    
  -45.7509003       1.56100297      -20.0000000       242.458145       1.63801265    
  -47.2535896       1.55706894      -20.0000000       504.188019       1.63834882    
  -48.7560692       1.53868604      -20.0000000       504.188019       1.63834882    
  -48.7281189       3.10503101      -20.0000000       504.188019       1.63834882    
  -47.2370110       3.11982203      -20.0000000       504.188019       1.63834882    
  -48.7281189       3.10503101      -20.0000000       54.1924591       2.84725118    
  -50.2011604       3.04989505      -20.0000000       54.1924591       2.84725118    
  -50.2067184       4.64797401      -20.0000000       54.1924591       2.84725118    
  -48.7241211       4.67746210      -20.0000000       54.1924591       2.84725118    
  -50.2067184       4.64797401      -20.0000000       2638.61719      -1.59821928    
  -51.6648903       4.56408405      -20.0000000       2638.61719      -1.59821928    
  -51.7500000       6.25000000      -20.0000000       2638.61719      -1.59821928    
  -50.2455711       6.25000000      -20.0000000       2638.61719      -1.59821928    
  -38.2494698      -6.25000000      -20.0000000       3576.85864       1.55209219    
  -39.7556496      -6.25000000      -20.0000000       3576.85864       1.55209219    
  -39.7507591      -4.68851089      -20.0000000       3576.85864       1.55209219    
  -38.2446404      -4.68936491      -20.0000000       3576.85864       1.55209219    
  -39.7507591      -4.68851089      -20.0000000       390.622925       1.46260893    
  -41.2566490      -4.68782711      -20.0000000       390.622925       1.46260893    
  -41.2511406      -3.12541890      -20.0000000       390.622925       1.46260893    
  -39.7453995      -3.12673903      -20.0000000       390.622925       1.46260893    
  -41.2511406      -3.12541890      -20.0000000       353.903351      -1.51034105    
  -42.7563400      -3.12513494      -20.0000000       353.903351      -1.51034105    
  -42.7509499      -1.56253600      -20.0000000       353.903351      -1.51034105    
  -41.2455711      -1.56282198      -20.0000000       353.903351      -1.51034105    
  -44.2515602       0.00000000      -20.0000000       207.928894      -1.56091154    
  -42.7457504       0.00000000      -20.0000000       207.928894      -1.56091154    
  -42.7509499      -1.56253600      -20.0000000       207.928894      -1.56091154    
  -44.2565308      -1.56226599      -20.0000000       207.928894      -1.56091154    
  -44.2515602       0.00000000      -20.0000000       232.746872       1.64127100    
  -45.7582893       0.00000000      -20.0000000       232.746872       1.64127100    
  -45.7509003       1.56100297      -20.0000000       232.746872       1.64127100    
  -44.2452011       1.56199801      -20.0000000       232.746872       1.64127100    
  -45.7509003       1.56100297      -20.0000000       470.120422       1.64427972    
  -47.2535896       1.55706894      -20.0000000       470.120422       1.64427972    
  -47.2370110       3.11982203      -20.0000000       470.120422       1.64427972    
  -45.7402802       3.12332392      -20.0000000       470.120422       1.64427972    
  -47.2370110       3.11982203      -20.0000000       86.3588562      -2.23315477    
  -48.7281189       3.10503101      -20.0000000       86.3588562      -2.23315477    
  -48.7241211       4.67746210      -20.0000000       86.3588562      -2.23315477    
  -47.2300911       4.68496799      -20.0000000       86.3588562      -2.23315477    
  -48.7241211       4.67746210      -20.0000000       2836.20410      -1.59693933    
  -50.2067184       4.64797401      -20.0000000       2836.20410      -1.59693933    
  -50.2455711       6.25000000      -20.0000000       2836.20410      -1.59693933    
  -48.7411499       6.25000000      -20.0000000       2836.20410      -1.59693933    
  -36.7432899      -6.25000000      -20.0000000       3627.45361       1.55207431    
  -38.2494698      -6.25000000      -20.0000000       3627.45361       1.55207431    
  -38.2446404      -4.68936491      -20.0000000       3627.45361       1.55207431    
  -36.7384796      -4.68897390      -20.0000000       3627.45361       1.55207431    
  -38.2446404      -4.68936491      -20.0000000       431.250519       1.47125065    
  -39.7507591      -4.68851089      -20.0000000       431.250519       1.47125065    
  -39.7453995      -3.12673903      -20.0000000       431.250519       1.47125065    
  -38.2396507      -3.12933803      -20.0000000       431.250519       1.47125065    
  -39.7453995      -3.12673903      -20.0000000       327.360291      -1.50424910    
  -41.2511406      -3.12541890      -20.0000000       327.360291      -1.50424910    
  -41.2455711      -1.56282198      -20.0000000       327.360291      -1.50424910    
  -39.7399902      -1.56351995      -20.0000000       327.360291      -1.50424910    
  -41.2455711      -1.56282198      -20.0000000       197.520187      -1.55943096    
  -42.7509499      -1.56253600      -20.0000000       197.520187      -1.55943096    
  -42.7457504       0.00000000      -20.0000000       197.520187      -1.55943096    
  -41.2401695       0.00000000      -20.0000000       197.520187      -1.55943096    
  -44.2452011       1.56199801      -20.0000000       224.625092       1.64436328    
  -42.7402611       1.56238496      -20.0000000       224.625092       1.64436328    
  -42.7457504       0.00000000      -20.0000000       224.625092       1.64436328    
  -44.2515602       0.00000000      -20.0000000       224.625092       1.64436328    
  -44.2452011       1.56199801      -20.0000000       435.050201       1.65121639    
  -45.7509003       1.56100297      -20.0000000       435.050201       1.65121639    
  -45.7402802       3.12332392      -20.0000000       435.050201       1.65121639    
  -44.2380295       3.12447906      -20.0000000       435.050201       1.65121639    
  -45.7402802       3.12332392      -20.0000000       154.652054      -1.92735362    
  -47.2370110       3.11982203      -20.0000000       154.652054      -1.92735362    
  -47.2300911       4.68496799      -20.0000000       154.652054      -1.92735362    
  -45.7329903       4.68700409      -20.0000000       154.652054      -1.92735362    
  -47.2300911       4.68496799      -20.0000000       3009.85425      -1.59591722    
  -48.7241211       4.67746210      -20.0000000       3009.85425      -1.59591722    
  -48.7411499       6.25000000      -20.0000000       3009.85425      -1.59591722    
  -47.2367287       6.25000000      -20.0000000       3009.85425      -1.59591722    
  -35.2371101      -6.25000000      -20.0000000       3671.61719       1.55207181    
  -36.7432899      -6.25000000      -20.0000000       3671.61719       1.55207181    
  -36.7384796      -4.68897390      -20.0000000       3671.61719       1.55207181    
  -35.2325211      -4.68835878      -20.0000000       3671.61719       1.55207181    
  -36.7384796      -4.68897390      -20.0000000       465.764191       1.47716844    
  -38.2446404      -4.68936491      -20.0000000       465.764191       1.47716844    
  -38.2396507      -3.12933803      -20.0000000       465.764191       1.47716844    
  -36.7339096      -3.12783909      -20.0000000       465.764191       1.47716844    
  -38.2396507      -3.12933803      -20.0000000       304.059113      -1.49761188    
  -39.7453995      -3.12673903      -20.0000000       304.059113      -1.49761188    
  -39.7399902      -1.56351995      -20.0000000       304.059113      -1.49761188    
  -38.2346497      -1.56438303      -20.0000000       304.059113      -1.49761188    
  -39.7399902      -1.56351995      -20.0000000       188.234100      -1.55797613    
  -41.2455711      -1.56282198      -20.0000000       188.234100      -1.55797613    
  -41.2401695       0.00000000      -20.0000000       188.234100      -1.55797613    