 VARIABLES="X" "Y" "Z" "abs(p) (Pa)" "angle(p) (rad)"
ZONE N=   3650,E =    3624, F=FEPOINT, ET=QUADRILATERAL
  -56.5164909      -2.47323704      -20.0000000       147.448029      -2.39841580    
  -55.4176407      -3.26747894      -20.0000000       147.448029      -2.39841580    
  -55.9264717      -4.64953518      -20.0000000       147.448029      -2.39841580    
  -56.9148483      -3.51935697      -20.0000000       147.448029      -2.39841580    
  -56.9148483      -3.51935697      -20.0000000       153.656540      -2.30930924    
  -57.6058807      -2.18402195      -20.0000000       153.656540      -2.30930924    
  -56.5164909      -2.47323704      -20.0000000       153.656540      -2.30930924    
  -56.5164909      -2.47323704      -20.0000000       153.656540      -2.30930924    
  -54.6953812      -5.51239681      -20.0000000       141.064758      -2.46830893    
  -55.9264717      -4.64953518      -20.0000000       141.064758      -2.46830893    
  -55.4176407      -3.26747894      -20.0000000       141.064758      -2.46830893    
  -54.2450790      -3.94889998      -20.0000000       141.064758      -2.46830893    
  -54.2450790      -3.94889998      -20.0000000       134.677383      -2.53480124    
  -52.9834785      -4.46340179      -20.0000000       134.677383      -2.53480124    
  -53.2955093      -6.05576801      -20.0000000       134.677383      -2.53480124    
  -54.6953812      -5.51239681      -20.0000000       134.677383      -2.53480124    
  -56.5223999      -1.11500299      -20.0000000       155.432922      -2.36163831    
  -56.5164909      -2.47323704      -20.0000000       155.432922      -2.36163831    
  -57.6058807      -2.18402195      -20.0000000       155.432922      -2.36163831    
  -57.9577713     -0.724482894      -20.0000000       155.432922      -2.36163831    
  -56.5164909      -2.47323704      -20.0000000       151.715424      -2.53948021    
  -56.5223999      -1.11500299      -20.0000000       151.715424      -2.53948021    
  -55.1657600      -1.76926601      -20.0000000       151.715424      -2.53948021    
  -55.4176407      -3.26747894      -20.0000000       151.715424      -2.53948021    
  -54.2450790      -3.94889998      -20.0000000       150.965637      -2.63272524    
  -55.4176407      -3.26747894      -20.0000000       150.965637      -2.63272524    
  -55.1657600      -1.76926601      -20.0000000       150.965637      -2.63272524    
  -53.8819199      -2.32836604      -20.0000000       150.965637      -2.63272524    
  -52.9834785      -4.46340179      -20.0000000       129.488541      -2.60563040    
  -51.6155815      -4.69134283      -20.0000000       129.488541      -2.60563040    
  -51.8049088      -6.24783087      -20.0000000       129.488541      -2.60563040    
  -53.2955093      -6.05576801      -20.0000000       129.488541      -2.60563040    
  -56.3964119      0.254809886      -20.0000000       156.837662      -2.38310003    
  -56.5223999      -1.11500299      -20.0000000       156.837662      -2.38310003    
  -57.9577713     -0.724482894      -20.0000000       156.837662      -2.38310003    
  -57.9511719      0.779103875      -20.0000000       156.837662      -2.38310003    
  -53.8819199      -2.32836604      -20.0000000       149.731888      -2.69461823    
  -52.7235603      -2.92538095      -20.0000000       149.731888      -2.69461823    
  -52.9834785      -4.46340179      -20.0000000       149.731888      -2.69461823    
  -54.2450790      -3.94889998      -20.0000000       149.731888      -2.69461823    
  -56.5223999      -1.11500299      -20.0000000       155.141678      -2.59162211    
  -56.3964119      0.254809886      -20.0000000       155.141678      -2.59162211    
  -54.8835487     -0.325594515      -20.0000000       155.141678      -2.59162211    
  -55.1657600      -1.76926601      -20.0000000       155.141678      -2.59162211    
  -50.2990494      -6.25000000      -20.0000000       126.958572      -2.67653584    
  -51.8049088      -6.24783087      -20.0000000       126.958572      -2.67653584    
  -51.6155815      -4.69134283      -20.0000000       126.958572      -2.67653584    
  -50.1911316      -4.70199823      -20.0000000       126.958572      -2.67653584    
  -53.8819199      -2.32836604      -20.0000000       157.804489      -2.70458531    
  -55.1657600      -1.76926601      -20.0000000       157.804489      -2.70458531    
  -54.8835487     -0.325594515      -20.0000000       157.804489      -2.70458531    
  -53.3087082     -0.726661325      -20.0000000       157.804489      -2.70458531    
  -52.7235603      -2.92538095      -20.0000000       148.608475      -2.74705219    
  -51.4683685      -3.18431592      -20.0000000       148.608475      -2.74705219    
  -51.6155815      -4.69134283      -20.0000000       148.608475      -2.74705219    
  -52.9834785      -4.46340179      -20.0000000       148.608475      -2.74705219    
  -56.1067696       1.60355306      -20.0000000       155.743134      -2.39675403    
  -56.3964119      0.254809886      -20.0000000       155.743134      -2.39675403    
  -57.9511719      0.779103875      -20.0000000       155.743134      -2.39675403    
  -57.5863686       2.23558092      -20.0000000       155.743134      -2.39675403    
  -56.3964119      0.254809886      -20.0000000       155.766449      -2.61390138    
  -56.1067696       1.60355306      -20.0000000       155.766449      -2.61390138    
  -54.6488190       1.11988902      -20.0000000       155.766449      -2.61390138    
  -54.8835487     -0.325594515      -20.0000000       155.766449      -2.61390138    
  -51.8859215      -1.67511594      -20.0000000       159.449081      -2.77212429    
  -52.7235603      -2.92538095      -20.0000000       159.449081      -2.77212429    
  -53.8819199      -2.32836604      -20.0000000       159.449081      -2.77212429    
  -53.3087082     -0.726661325      -20.0000000       159.449081      -2.77212429    
  -48.7928200      -6.25000000      -20.0000000       126.144783      -2.73454261    
  -50.2990494      -6.25000000      -20.0000000       126.144783      -2.73454261    
  -50.1911316      -4.70199823      -20.0000000       126.144783      -2.73454261    
  -48.7387619      -4.69004917      -20.0000000       126.144783      -2.73454261    
  -50.1911316      -4.70199823      -20.0000000       149.202484      -2.79892945    
  -51.6155815      -4.69134283      -20.0000000       149.202484      -2.79892945    
  -51.4683685      -3.18431592      -20.0000000       149.202484      -2.79892945    
  -50.1564102      -3.12996602      -20.0000000       149.202484      -2.79892945    
  -54.6488190       1.11988902      -20.0000000       160.103531      -2.73204780    
  -53.2043991       1.01675200      -20.0000000       160.103531      -2.73204780    
  -53.3087082     -0.726661325      -20.0000000       160.103531      -2.73204780    
  -54.8835487     -0.325594515      -20.0000000       160.103531      -2.73204780    
  -51.4683685      -3.18431592      -20.0000000       158.079468      -2.79837394    
  -52.7235603      -2.92538095      -20.0000000       158.079468      -2.79837394    
  -51.8859215      -1.67511594      -20.0000000       158.079468      -2.79837394    
  -51.8859215      -1.67511594      -20.0000000       158.079468      -2.79837394    
  -55.6295395       2.91055298      -20.0000000       152.083115      -2.40635443    
  -56.1067696       1.60355306      -20.0000000       152.083115      -2.40635443    
  -57.5863686       2.23558092      -20.0000000       152.083115      -2.40635443    
  -56.8836594       3.56473303      -20.0000000       152.083115      -2.40635443    
  -47.2866096      -6.25000000      -20.0000000       125.506897      -2.77759242    
  -48.7928200      -6.25000000      -20.0000000       125.506897      -2.77759242    
  -48.7387619      -4.69004917      -20.0000000       125.506897      -2.77759242    
  -47.2626686      -4.68801212      -20.0000000       125.506897      -2.77759242    
  -48.7387619      -4.69004917      -20.0000000       150.704605      -2.84360695    
  -50.1911316      -4.70199823      -20.0000000       150.704605      -2.84360695    
  -50.1564102      -3.12996602      -20.0000000       150.704605      -2.84360695    
  -48.7254105      -3.12169194      -20.0000000       150.704605      -2.84360695    
  -50.1564102      -3.12996602      -20.0000000       161.364105      -2.84272146    
  -51.4683685      -3.18431592      -20.0000000       161.364105      -2.84272146    
  -51.8859215      -1.67511594      -20.0000000       161.364105      -2.84272146    
  -50.2854195      -1.59545600      -20.0000000       161.364105      -2.84272146    
  -54.6488190       1.11988902      -20.0000000       153.388626      -2.61525822    
  -56.1067696       1.60355306      -20.0000000       153.388626      -2.61525822    
  -55.6295395       2.91055298      -20.0000000       153.388626      -2.61525822    
  -54.3531990       2.57653904      -20.0000000       153.388626      -2.61525822    
  -51.7686501     -0.191007897      -20.0000000       163.906448      -2.81296611    
  -51.8859215      -1.67511594      -20.0000000       163.906448      -2.81296611    
  -53.3087082     -0.726661325      -20.0000000       163.906448      -2.81296611    
  -53.3087082     -0.726661325      -20.0000000       163.906448      -2.81296611    
  -51.7686501     -0.191007897      -20.0000000       164.030914      -2.80700684    
  -53.3087082     -0.726661325      -20.0000000       164.030914      -2.80700684    
  -53.2043991       1.01675200      -20.0000000       164.030914      -2.80700684    
  -51.7500000       1.29565406      -20.0000000       164.030914      -2.80700684    
  -53.0367393       2.70281792      -20.0000000       157.452881      -2.72551250    
  -53.2043991       1.01675200      -20.0000000       157.452881      -2.72551250    
  -54.6488190       1.11988902      -20.0000000       157.452881      -2.72551250    
  -54.3531990       2.57653904      -20.0000000       157.452881      -2.72551250    
  -45.7804108      -6.25000000      -20.0000000       124.886490      -2.80993295    
  -47.2866096      -6.25000000      -20.0000000       124.886490      -2.80993295    
  -47.2626686      -4.68801212      -20.0000000       124.886490      -2.80993295    
  -45.7679100      -4.68779421      -20.0000000       124.886490      -2.80993295    
  -47.2626686      -4.68801212      -20.0000000       151.677139      -2.87768030    
  -48.7387619      -4.69004917      -20.0000000       151.677139      -2.87768030    
  -48.7254105      -3.12169194      -20.0000000       151.677139      -2.87768030    
  -47.2550507      -3.12222195      -20.0000000       151.677139      -2.87768030    
  -54.5736809       4.04919481      -20.0000000       145.465118      -2.43356895    
  -55.6295395       2.91055298      -20.0000000       145.465118      -2.43356895    
  -56.8836594       3.56473303      -20.0000000       145.465118      -2.43356895    
  -55.8850899       4.68635893      -20.0000000       145.465118      -2.43356895    
  -48.7254105      -3.12169194      -20.0000000       163.706421      -2.88458991    
  -50.1564102      -3.12996602      -20.0000000       163.706421      -2.88458991    
  -50.2854195      -1.59545600      -20.0000000       163.706421      -2.88458991    
  -48.7658615      -1.56390297      -20.0000000       163.706421      -2.88458991    
  -50.2854195      -1.59545600      -20.0000000       166.689621      -2.85819769    
  -51.8859215      -1.67511594      -20.0000000       166.689621      -2.85819769    
  -51.7686501     -0.191007897      -20.0000000       166.689621      -2.85819769    
  -50.2816200      -7.23225027E-02  -20.0000000       166.689621      -2.85819769    
  -55.6295395       2.91055298      -20.0000000       148.693222      -2.59797931    
  -54.5736809       4.04919481      -20.0000000       148.693222      -2.59797931    
  -54.3531990       2.57653904      -20.0000000       148.693222      -2.59797931    
  -54.3531990       2.57653904      -20.0000000       148.693222      -2.59797931    
  -51.6464691       2.90894699      -20.0000000       160.309250      -2.79491997    
  -51.7500000       1.29565406      -20.0000000       160.309250      -2.79491997    
  -53.2043991       1.01675200      -20.0000000       160.309250      -2.79491997    
  -53.0367393       2.70281792      -20.0000000       160.309250      -2.79491997    
  -44.2742119      -6.25000000      -20.0000000       124.339523      -2.83406568    
  -45.7804108      -6.25000000      -20.0000000       124.339523      -2.83406568    
  -45.7679100      -4.68779421      -20.0000000       124.339523      -2.83406568    
  -44.2670212      -4.68766403      -20.0000000       124.339523      -2.83406568    
  -45.7679100      -4.68779421      -20.0000000       152.316330      -2.90357065    
  -47.2626686      -4.68801212      -20.0000000       152.316330      -2.90357065    
  -47.2550507      -3.12222195      -20.0000000       152.316330      -2.90357065    
  -45.7611885      -3.12411094      -20.0000000       152.316330      -2.90357065    
  -51.7500000       1.29565406      -20.0000000       167.202408      -2.86129594    
  -50.2459984       1.47492099      -20.0000000       167.202408      -2.86129594    
  -50.2816200      -7.23225027E-02  -20.0000000       167.202408      -2.86129594    
  -51.7686501     -0.191007897      -20.0000000       167.202408      -2.86129594    
  -47.2550507      -3.12222195      -20.0000000       165.414597      -2.91570044    
  -48.7254105      -3.12169194      -20.0000000       165.414597      -2.91570044    
  -48.7658615      -1.56390297      -20.0000000       165.414597      -2.91570044    
  -47.2643318      -1.55986798      -20.0000000       165.414597      -2.91570044    
  -48.7658615      -1.56390297      -20.0000000       169.539505      -2.90000391    
  -50.2854195      -1.59545600      -20.0000000       169.539505      -2.90000391    
  -50.2816200      -7.23225027E-02  -20.0000000       169.539505      -2.90000391    
  -48.7753716      -1.42937005E-02  -20.0000000       169.539505      -2.90000391    
  -54.5736809       4.04919481      -20.0000000       149.071121      -2.67376995    
  -53.0954399       4.36336088      -20.0000000       149.071121      -2.67376995    
  -53.0367393       2.70281792      -20.0000000       149.071121      -2.67376995    
  -54.3531990       2.57653904      -20.0000000       149.071121      -2.67376995    
  -54.6465797       5.53822613      -20.0000000       138.224655      -2.41525698    
  -54.5736809       4.04919481      -20.0000000       138.224655      -2.41525698    
  -55.8850899       4.68635893      -20.0000000       138.224655      -2.41525698    
  -55.8850899       4.68635893      -20.0000000       138.224655      -2.41525698    
  -44.2670212      -4.68766403      -20.0000000       123.870209      -2.85155892    
  -42.7620697      -4.68767691      -20.0000000       123.870209      -2.85155892    
  -42.7680206      -6.25000000      -20.0000000       123.870209      -2.85155892    
  -44.2742119      -6.25000000      -20.0000000       123.870209      -2.85155892    
  -44.2670212      -4.68766403      -20.0000000       152.760757      -2.92295003    
  -45.7679100      -4.68779421      -20.0000000       152.760757      -2.92295003    
  -45.7611885      -3.12411094      -20.0000000       152.760757      -2.92295003    
  -44.2611694      -3.12488103      -20.0000000       152.760757      -2.92295003    
  -45.7611885      -3.12411094      -20.0000000       166.660843      -2.93910909    
  -47.2550507      -3.12222195      -20.0000000       166.660843      -2.93910909    
  -47.2643318      -1.55986798      -20.0000000       166.660843      -2.93910909    
  -45.7603798      -1.56126106      -20.0000000       166.660843      -2.93910909    
  -50.2459984       1.47492099      -20.0000000       162.322144      -2.84606171    
  -51.7500000       1.29565406      -20.0000000       162.322144      -2.84606171    
  -51.6464691       2.90894699      -20.0000000       162.322144      -2.84606171    
  -50.2011604       3.04989505      -20.0000000       162.322144      -2.84606171    
  -54.6465797       5.53822613      -20.0000000       134.714798      -2.52966547    
  -53.2416306       6.06926107      -20.0000000       134.714798      -2.52966547    
  -53.0954399       4.36336088      -20.0000000       134.714798      -2.52966547    
  -54.5736809       4.04919481      -20.0000000       134.714798      -2.52966547    
  -47.2643318      -1.55986798      -20.0000000       171.630646      -2.93051529    
  -48.7658615      -1.56390297      -20.0000000       171.630646      -2.93051529    
  -48.7753716      -1.42937005E-02  -20.0000000       171.630646      -2.93051529    
  -47.2657204       0.00000000      -20.0000000       171.630646      -2.93051529    
  -48.7753716      -1.42937005E-02  -20.0000000       169.698547      -2.90070367    
  -50.2816200      -7.23225027E-02  -20.0000000       169.698547      -2.90070367    
  -50.2459984       1.47492099      -20.0000000       169.698547      -2.90070367    
  -48.7560692       1.53868604      -20.0000000       169.698547      -2.90070367    
  -51.6464691       2.90894699      -20.0000000       149.982803      -2.74773121    
  -53.0367393       2.70281792      -20.0000000       149.982803      -2.74773121    
  -53.0954399       4.36336088      -20.0000000       149.982803      -2.74773121    
  -51.6648903       4.56408405      -20.0000000       149.982803      -2.74773121    
  -41.2618294      -6.25000000      -20.0000000       123.480659      -2.86345148    
  -42.7680206      -6.25000000      -20.0000000       123.480659      -2.86345148    
  -42.7620697      -4.68767691      -20.0000000       123.480659      -2.86345148    
  -41.2566490      -4.68782711      -20.0000000       123.480659      -2.86345148    
  -44.2611694      -3.12488103      -20.0000000       153.082886      -2.93702316    
  -42.7563400      -3.12513494      -20.0000000       153.082886      -2.93702316    
  -42.7620697      -4.68767691      -20.0000000       153.082886      -2.93702316    
  -44.2670212      -4.68766403      -20.0000000       153.082886      -2.93702316    
  -44.2611694      -3.12488103      -20.0000000       167.599121      -2.95655084    
  -45.7611885      -3.12411094      -20.0000000       167.599121      -2.95655084    
  -45.7603798      -1.56126106      -20.0000000       167.599121      -2.95655084    
  -44.2565308      -1.56226599      -20.0000000       167.599121      -2.95655084    
  -45.7603798      -1.56126106      -20.0000000       173.178711      -2.95314384    
  -47.2643318      -1.55986798      -20.0000000       173.178711      -2.95314384    
  -47.2657204       0.00000000      -20.0000000       173.178711      -2.95314384    
  -45.7582893       0.00000000      -20.0000000       173.178711      -2.95314384    
  -47.2657204       0.00000000      -20.0000000       171.658524      -2.93068862    
  -48.7753716      -1.42937005E-02  -20.0000000       171.658524      -2.93068862    
  -48.7560692       1.53868604      -20.0000000       171.658524      -2.93068862    
  -47.2535896       1.55706894      -20.0000000       171.658524      -2.93068862    
  -48.7560692       1.53868604      -20.0000000       163.988525      -2.88550019    
  -50.2459984       1.47492099      -20.0000000       163.988525      -2.88550019    
  -50.2011604       3.04989505      -20.0000000       163.988525      -2.88550019    
  -48.7281189       3.10503101      -20.0000000       163.988525      -2.88550019    
  -50.2011604       3.04989505      -20.0000000       150.519714      -2.80204511    
  -51.6464691       2.90894699      -20.0000000       150.519714      -2.80204511    
  -51.6648903       4.56408405      -20.0000000       150.519714      -2.80204511    
  -50.2067184       4.64797401      -20.0000000       150.519714      -2.80204511    
  -51.6648903       4.56408405      -20.0000000       130.307861      -2.61233425    
  -53.0954399       4.36336088      -20.0000000       130.307861      -2.61233425    
  -53.2416306       6.06926107      -20.0000000       130.307861      -2.61233425    
  -51.7500000       6.25000000      -20.0000000       130.307861      -2.61233425    
  -39.7556496      -6.25000000      -20.0000000       123.191536      -2.87074518    
  -41.2618294      -6.25000000      -20.0000000       123.191536      -2.87074518    
  -41.2566490      -4.68782711      -20.0000000       123.191536      -2.87074518    
  -39.7507591      -4.68851089      -20.0000000       123.191536      -2.87074518    
  -41.2566490      -4.68782711      -20.0000000       153.326233      -2.94672060    
  -42.7620697      -4.68767691      -20.0000000       153.326233      -2.94672060    
  -42.7563400      -3.12513494      -20.0000000       153.326233      -2.94672060    
  -41.2511406      -3.12541890      -20.0000000       153.326233      -2.94672060    
  -44.2565308      -1.56226599      -20.0000000       168.305374      -2.96918130    
  -42.7509499      -1.56253600      -20.0000000       168.305374      -2.96918130    
  -42.7563400      -3.12513494      -20.0000000       168.305374      -2.96918130    
  -44.2611694      -3.12488103      -20.0000000       168.305374      -2.96918130    
  -44.2565308      -1.56226599      -20.0000000       174.345062      -2.96986175    
  -45.7603798      -1.56126106      -20.0000000       174.345062      -2.96986175    
  -45.7582893       0.00000000      -20.0000000       174.345062      -2.96986175    
  -44.2515602       0.00000000      -20.0000000       174.345062      -2.96986175    
  -45.7582893       0.00000000      -20.0000000       173.177063      -2.95322227    
  -47.2657204       0.00000000      -20.0000000       173.177063      -2.95322227    
  -47.2535896       1.55706894      -20.0000000       173.177063      -2.95322227    
  -45.7509003       1.56100297      -20.0000000       173.177063      -2.95322227    
  -47.2535896       1.55706894      -20.0000000       165.449997      -2.91601253    
  -48.7560692       1.53868604      -20.0000000       165.449997      -2.91601253    
  -48.7281189       3.10503101      -20.0000000       165.449997      -2.91601253    
  -47.2370110       3.11982203      -20.0000000       165.449997      -2.91601253    
  -48.7281189       3.10503101      -20.0000000       151.090912      -2.84477925    
  -50.2011604       3.04989505      -20.0000000       151.090912      -2.84477925    
  -50.2067184       4.64797401      -20.0000000       151.090912      -2.84477925    
  -48.7241211       4.67746210      -20.0000000       151.090912      -2.84477925    
  -50.2067184       4.64797401      -20.0000000       127.758110      -2.68238282    
  -51.6648903       4.56408405      -20.0000000       127.758110      -2.68238282    
  -51.7500000       6.25000000      -20.0000000       127.758110      -2.68238282    
  -50.2455711       6.25000000      -20.0000000       127.758110      -2.68238282    
  -38.2494698      -6.25000000      -20.0000000       122.999222      -2.87417889    
  -39.7556496      -6.25000000      -20.0000000       122.999222      -2.87417889    
  -39.7507591      -4.68851089      -20.0000000       122.999222      -2.87417889    
  -38.2446404      -4.68936491      -20.0000000       122.999222      -2.87417889    
  -39.7507591      -4.68851089      -20.0000000       153.518250      -2.95279932    
  -41.2566490      -4.68782711      -20.0000000       153.518250      -2.95279932    
  -41.2511406      -3.12541890      -20.0000000       153.518250      -2.95279932    
  -39.7453995      -3.12673903      -20.0000000       153.518250      -2.95279932    
  -41.2511406      -3.12541890      -20.0000000       168.867294      -2.97790408    
  -42.7563400      -3.12513494      -20.0000000       168.867294      -2.97790408    
  -42.7509499      -1.56253600      -20.0000000       168.867294      -2.97790408    
  -41.2455711      -1.56282198      -20.0000000       168.867294      -2.97790408    
  -44.2515602       0.00000000      -20.0000000       175.241165      -2.98193192    
  -42.7457504       0.00000000      -20.0000000       175.241165      -2.98193192    
  -42.7509499      -1.56253600      -20.0000000       175.241165      -2.98193192    
  -44.2565308      -1.56226599      -20.0000000       175.241165      -2.98193192    
  -44.2515602       0.00000000      -20.0000000       174.344345      -2.96991706    
  -45.7582893       0.00000000      -20.0000000       174.344345      -2.96991706    
  -45.7509003       1.56100297      -20.0000000       174.344345      -2.96991706    
  -44.2452011       1.56199801      -20.0000000       174.344345      -2.96991706    
  -45.7509003       1.56100297      -20.0000000       166.640411      -2.93931293    
  -47.2535896       1.55706894      -20.0000000       166.640411      -2.93931293    
  -47.2370110       3.11982203      -20.0000000       166.640411      -2.93931293    
  -45.7402802       3.12332392      -20.0000000       166.640411      -2.93931293    
  -47.2370110       3.11982203      -20.0000000       151.731445      -2.87828064    
  -48.7281189       3.10503101      -20.0000000       151.731445      -2.87828064    
  -48.7241211       4.67746210      -20.0000000       151.731445      -2.87828064    
  -47.2300911       4.68496799      -20.0000000       151.731445      -2.87828064    
  -48.7241211       4.67746210      -20.0000000       126.440735      -2.73726130    
  -50.2067184       4.64797401      -20.0000000       126.440735      -2.73726130    
  -50.2455711       6.25000000      -20.0000000       126.440735      -2.73726130    
  -48.7411499       6.25000000      -20.0000000       126.440735      -2.73726130    
  -36.7432899      -6.25000000      -20.0000000       122.904869      -2.87445021    
  -38.2494698      -6.25000000      -20.0000000       122.904869      -2.87445021    
  -38.2446404      -4.68936491      -20.0000000       122.904869      -2.87445021    
  -36.7384796      -4.68897390      -20.0000000       122.904869      -2.87445021    
  -38.2446404      -4.68936491      -20.0000000       153.703918      -2.95586991    
  -39.7507591      -4.68851089      -20.0000000       153.703918      -2.95586991    
  -39.7453995      -3.12673903      -20.0000000       153.703918      -2.95586991    
  -38.2396507      -3.12933803      -20.0000000       153.703918      -2.95586991    
  -39.7453995      -3.12673903      -20.0000000       169.317581      -2.98342943    
  -41.2511406      -3.12541890      -20.0000000       169.317581      -2.98342943    
  -41.2455711      -1.56282198      -20.0000000       169.317581      -2.98342943    
  -39.7399902      -1.56351995      -20.0000000       169.317581      -2.98342943    
  -41.2455711      -1.56282198      -20.0000000       175.954880      -2.99025035    
  -42.7509499      -1.56253600      -20.0000000       175.954880      -2.99025035    
  -42.7457504       0.00000000      -20.0000000       175.954880      -2.99025035    
  -41.2401695       0.00000000      -20.0000000       175.954880      -2.99025035    
  -44.2452011       1.56199801      -20.0000000       175.234955      -2.98195958    
  -42.7402611       1.56238496      -20.0000000       175.234955      -2.98195958    
  -42.7457504       0.00000000      -20.0000000       175.234955      -2.98195958    
  -44.2515602       0.00000000      -20.0000000       175.234955      -2.98195958    
  -44.2452011       1.56199801      -20.0000000       167.567200      -2.95670986    
  -45.7509003       1.56100297      -20.0000000       167.567200      -2.95670986    
  -45.7402802       3.12332392      -20.0000000       167.567200      -2.95670986    
  -44.2380295       3.12447906      -20.0000000       167.567200      -2.95670986    
  -45.7402802       3.12332392      -20.0000000       152.301468      -2.90401006    
  -47.2370110       3.11982203      -20.0000000       152.301468      -2.90401006    
  -47.2300911       4.68496799      -20.0000000       152.301468      -2.90401006    
  -45.7329903       4.68700409      -20.0000000       152.301468      -2.90401006    
  -47.2300911       4.68496799      -20.0000000       125.530609      -2.77890134    
  -48.7241211       4.67746210      -20.0000000       125.530609      -2.77890134    
  -48.7411499       6.25000000      -20.0000000       125.530609      -2.77890134    
  -47.2367287       6.25000000      -20.0000000       125.530609      -2.77890134    
  -35.2371101      -6.25000000      -20.0000000       122.928848      -2.87213373    
  -36.7432899      -6.25000000      -20.0000000       122.928848      -2.87213373    
  -36.7384796      -4.68897390      -20.0000000       122.928848      -2.87213373    
  -35.2325211      -4.68835878      -20.0000000       122.928848      -2.87213373    
  -36.7384796      -4.68897390      -20.0000000       153.904465      -2.95648098    
  -38.2446404      -4.68936491      -20.0000000       153.904465      -2.95648098    
  -38.2396507      -3.12933803      -20.0000000       153.904465      -2.95648098    
  -36.7339096      -3.12783909      -20.0000000       153.904465      -2.95648098    
  -38.2396507      -3.12933803      -20.0000000       169.714996      -2.98627496    
  -39.7453995      -3.12673903      -20.0000000       169.714996      -2.98627496    
  -39.7399902      -1.56351995      -20.0000000       169.714996      -2.98627496    
  -38.2346497      -1.56438303      -20.0000000       169.714996      -2.98627496    
  -39.7399902      -1.56351995      -20.0000000       176.511429      -2.99550676    
  -41.2455711      -1.56282198      -20.0000000       176.511429      -2.99550676    
  -41.2401695       0.00000000      -20.0000000       176.511429      -2.99550676    