 VARIABLES="X" "Y" "Z" "abs(p) (Pa)" "angle(p) (rad)"
ZONE N=   3650,E =    3624, F=FEPOINT, ET=QUADRILATERAL
  -56.5164909      -2.47323704      -20.0000000       6.11744881      0.671253741    
  -55.4176407      -3.26747894      -20.0000000       6.11744881      0.671253741    
  -55.9264717      -4.64953518      -20.0000000       6.11744881      0.671253741    
  -56.9148483      -3.51935697      -20.0000000       6.11744881      0.671253741    
  -56.9148483      -3.51935697      -20.0000000       6.43930531      0.669845104    
  -57.6058807      -2.18402195      -20.0000000       6.43930531      0.669845104    
  -56.5164909      -2.47323704      -20.0000000       6.43930531      0.669845104    
  -56.5164909      -2.47323704      -20.0000000       6.43930531      0.669845104    
  -54.6953812      -5.51239681      -20.0000000       5.82586050      0.673190296    
  -55.9264717      -4.64953518      -20.0000000       5.82586050      0.673190296    
  -55.4176407      -3.26747894      -20.0000000       5.82586050      0.673190296    
  -54.2450790      -3.94889998      -20.0000000       5.82586050      0.673190296    
  -54.2450790      -3.94889998      -20.0000000       5.56448698      0.671894789    
  -52.9834785      -4.46340179      -20.0000000       5.56448698      0.671894789    
  -53.2955093      -6.05576801      -20.0000000       5.56448698      0.671894789    
  -54.6953812      -5.51239681      -20.0000000       5.56448698      0.671894789    
  -56.5223999      -1.11500299      -20.0000000       6.35041523      0.665196478    
  -56.5164909      -2.47323704      -20.0000000       6.35041523      0.665196478    
  -57.6058807      -2.18402195      -20.0000000       6.35041523      0.665196478    
  -57.9577713     -0.724482894      -20.0000000       6.35041523      0.665196478    
  -56.5164909      -2.47323704      -20.0000000       5.80579042      0.664101005    
  -56.5223999      -1.11500299      -20.0000000       5.80579042      0.664101005    
  -55.1657600      -1.76926601      -20.0000000       5.80579042      0.664101005    
  -55.4176407      -3.26747894      -20.0000000       5.80579042      0.664101005    
  -54.2450790      -3.94889998      -20.0000000       5.45478439      0.665424824    
  -55.4176407      -3.26747894      -20.0000000       5.45478439      0.665424824    
  -55.1657600      -1.76926601      -20.0000000       5.45478439      0.665424824    
  -53.8819199      -2.32836604      -20.0000000       5.45478439      0.665424824    
  -52.9834785      -4.46340179      -20.0000000       5.32739353      0.665369749    
  -51.6155815      -4.69134283      -20.0000000       5.32739353      0.665369749    
  -51.8049088      -6.24783087      -20.0000000       5.32739353      0.665369749    
  -53.2955093      -6.05576801      -20.0000000       5.32739353      0.665369749    
  -56.3964119      0.254809886      -20.0000000       6.31755400      0.662484169    
  -56.5223999      -1.11500299      -20.0000000       6.31755400      0.662484169    
  -57.9577713     -0.724482894      -20.0000000       6.31755400      0.662484169    
  -57.9511719      0.779103875      -20.0000000       6.31755400      0.662484169    
  -53.8819199      -2.32836604      -20.0000000       5.19435835      0.664652884    
  -52.7235603      -2.92538095      -20.0000000       5.19435835      0.664652884    
  -52.9834785      -4.46340179      -20.0000000       5.19435835      0.664652884    
  -54.2450790      -3.94889998      -20.0000000       5.19435835      0.664652884    
  -56.5223999      -1.11500299      -20.0000000       5.69283485      0.659557045    
  -56.3964119      0.254809886      -20.0000000       5.69283485      0.659557045    
  -54.8835487     -0.325594515      -20.0000000       5.69283485      0.659557045    
  -55.1657600      -1.76926601      -20.0000000       5.69283485      0.659557045    
  -50.2990494      -6.25000000      -20.0000000       5.10815191      0.653472960    
  -51.8049088      -6.24783087      -20.0000000       5.10815191      0.653472960    
  -51.6155815      -4.69134283      -20.0000000       5.10815191      0.653472960    
  -50.1911316      -4.70199823      -20.0000000       5.10815191      0.653472960    
  -53.8819199      -2.32836604      -20.0000000       5.27075529      0.659070969    
  -55.1657600      -1.76926601      -20.0000000       5.27075529      0.659070969    
  -54.8835487     -0.325594515      -20.0000000       5.27075529      0.659070969    
  -53.3087082     -0.726661325      -20.0000000       5.27075529      0.659070969    
  -52.7235603      -2.92538095      -20.0000000       4.97675371      0.659258962    
  -51.4683685      -3.18431592      -20.0000000       4.97675371      0.659258962    
  -51.6155815      -4.69134283      -20.0000000       4.97675371      0.659258962    
  -52.9834785      -4.46340179      -20.0000000       4.97675371      0.659258962    
  -56.1067696       1.60355306      -20.0000000       6.25650644      0.663506687    
  -56.3964119      0.254809886      -20.0000000       6.25650644      0.663506687    
  -57.9511719      0.779103875      -20.0000000       6.25650644      0.663506687    
  -57.5863686       2.23558092      -20.0000000       6.25650644      0.663506687    
  -56.3964119      0.254809886      -20.0000000       5.61733055      0.659207165    
  -56.1067696       1.60355306      -20.0000000       5.61733055      0.659207165    
  -54.6488190       1.11988902      -20.0000000       5.61733055      0.659207165    
  -54.8835487     -0.325594515      -20.0000000       5.61733055      0.659207165    
  -51.8859215      -1.67511594      -20.0000000       4.97116947      0.657170117    
  -52.7235603      -2.92538095      -20.0000000       4.97116947      0.657170117    
  -53.8819199      -2.32836604      -20.0000000       4.97116947      0.657170117    
  -53.3087082     -0.726661325      -20.0000000       4.97116947      0.657170117    
  -48.7928200      -6.25000000      -20.0000000       4.90996599      0.638611138    
  -50.2990494      -6.25000000      -20.0000000       4.90996599      0.638611138    
  -50.1911316      -4.70199823      -20.0000000       4.90996599      0.638611138    
  -48.7387619      -4.69004917      -20.0000000       4.90996599      0.638611138    
  -50.1911316      -4.70199823      -20.0000000       4.77037859      0.648752451    
  -51.6155815      -4.69134283      -20.0000000       4.77037859      0.648752451    
  -51.4683685      -3.18431592      -20.0000000       4.77037859      0.648752451    
  -50.1564102      -3.12996602      -20.0000000       4.77037859      0.648752451    
  -54.6488190       1.11988902      -20.0000000       5.17870855      0.657026350    
  -53.2043991       1.01675200      -20.0000000       5.17870855      0.657026350    
  -53.3087082     -0.726661325      -20.0000000       5.17870855      0.657026350    
  -54.8835487     -0.325594515      -20.0000000       5.17870855      0.657026350    
  -51.4683685      -3.18431592      -20.0000000       4.83112240      0.654525340    
  -52.7235603      -2.92538095      -20.0000000       4.83112240      0.654525340    
  -51.8859215      -1.67511594      -20.0000000       4.83112240      0.654525340    
  -51.8859215      -1.67511594      -20.0000000       4.83112240      0.654525340    
  -55.6295395       2.91055298      -20.0000000       6.15982914      0.667579532    
  -56.1067696       1.60355306      -20.0000000       6.15982914      0.667579532    
  -57.5863686       2.23558092      -20.0000000       6.15982914      0.667579532    
  -56.8836594       3.56473303      -20.0000000       6.15982914      0.667579532    
  -47.2866096      -6.25000000      -20.0000000       4.72397137      0.623817980    
  -48.7928200      -6.25000000      -20.0000000       4.72397137      0.623817980    
  -48.7387619      -4.69004917      -20.0000000       4.72397137      0.623817980    
  -47.2626686      -4.68801212      -20.0000000       4.72397137      0.623817980    
  -48.7387619      -4.69004917      -20.0000000       4.57844162      0.635768116    
  -50.1911316      -4.70199823      -20.0000000       4.57844162      0.635768116    
  -50.1564102      -3.12996602      -20.0000000       4.57844162      0.635768116    
  -48.7254105      -3.12169194      -20.0000000       4.57844162      0.635768116    
  -50.1564102      -3.12996602      -20.0000000       4.63578320      0.646817565    
  -51.4683685      -3.18431592      -20.0000000       4.63578320      0.646817565    
  -51.8859215      -1.67511594      -20.0000000       4.63578320      0.646817565    
  -50.2854195      -1.59545600      -20.0000000       4.63578320      0.646817565    
  -54.6488190       1.11988902      -20.0000000       5.56116009      0.662747502    
  -56.1067696       1.60355306      -20.0000000       5.56116009      0.662747502    
  -55.6295395       2.91055298      -20.0000000       5.56116009      0.662747502    
  -54.3531990       2.57653904      -20.0000000       5.56116009      0.662747502    
  -51.7686501     -0.191007897      -20.0000000       4.81301975      0.652745903    
  -51.8859215      -1.67511594      -20.0000000       4.81301975      0.652745903    
  -53.3087082     -0.726661325      -20.0000000       4.81301975      0.652745903    
  -53.3087082     -0.726661325      -20.0000000       4.81301975      0.652745903    
  -51.7686501     -0.191007897      -20.0000000       4.84613895      0.653010547    
  -53.3087082     -0.726661325      -20.0000000       4.84613895      0.653010547    
  -53.2043991       1.01675200      -20.0000000       4.84613895      0.653010547    
  -51.7500000       1.29565406      -20.0000000       4.84613895      0.653010547    
  -53.0367393       2.70281792      -20.0000000       5.16567326      0.659719110    
  -53.2043991       1.01675200      -20.0000000       5.16567326      0.659719110    
  -54.6488190       1.11988902      -20.0000000       5.16567326      0.659719110    
  -54.3531990       2.57653904      -20.0000000       5.16567326      0.659719110    
  -45.7804108      -6.25000000      -20.0000000       4.53146124      0.610734999    
  -47.2866096      -6.25000000      -20.0000000       4.53146124      0.610734999    
  -47.2626686      -4.68801212      -20.0000000       4.53146124      0.610734999    
  -45.7679100      -4.68779421      -20.0000000       4.53146124      0.610734999    
  -47.2626686      -4.68801212      -20.0000000       4.39792871      0.622927010    
  -48.7387619      -4.69004917      -20.0000000       4.39792871      0.622927010    
  -48.7254105      -3.12169194      -20.0000000       4.39792871      0.622927010    
  -47.2550507      -3.12222195      -20.0000000       4.39792871      0.622927010    
  -54.5736809       4.04919481      -20.0000000       5.98235655      0.671957195    
  -55.6295395       2.91055298      -20.0000000       5.98235655      0.671957195    
  -56.8836594       3.56473303      -20.0000000       5.98235655      0.671957195    
  -55.8850899       4.68635893      -20.0000000       5.98235655      0.671957195    
  -48.7254105      -3.12169194      -20.0000000       4.42739487      0.635486901    
  -50.1564102      -3.12996602      -20.0000000       4.42739487      0.635486901    
  -50.2854195      -1.59545600      -20.0000000       4.42739487      0.635486901    
  -48.7658615      -1.56390297      -20.0000000       4.42739487      0.635486901    
  -50.2854195      -1.59545600      -20.0000000       4.58808613      0.645910740    
  -51.8859215      -1.67511594      -20.0000000       4.58808613      0.645910740    
  -51.7686501     -0.191007897      -20.0000000       4.58808613      0.645910740    
  -50.2816200      -7.23225027E-02  -20.0000000       4.58808613      0.645910740    
  -55.6295395       2.91055298      -20.0000000       5.54619026      0.667240262    
  -54.5736809       4.04919481      -20.0000000       5.54619026      0.667240262    
  -54.3531990       2.57653904      -20.0000000       5.54619026      0.667240262    
  -54.3531990       2.57653904      -20.0000000       5.54619026      0.667240262    
  -51.6464691       2.90894699      -20.0000000       4.86812401      0.655042112    
  -51.7500000       1.29565406      -20.0000000       4.86812401      0.655042112    
  -53.2043991       1.01675200      -20.0000000       4.86812401      0.655042112    
  -53.0367393       2.70281792      -20.0000000       4.86812401      0.655042112    
  -44.2742119      -6.25000000      -20.0000000       4.32269192      0.599255681    
  -45.7804108      -6.25000000      -20.0000000       4.32269192      0.599255681    
  -45.7679100      -4.68779421      -20.0000000       4.32269192      0.599255681    
  -44.2670212      -4.68766403      -20.0000000       4.32269192      0.599255681    
  -45.7679100      -4.68779421      -20.0000000       4.21268892      0.611894667    
  -47.2626686      -4.68801212      -20.0000000       4.21268892      0.611894667    
  -47.2550507      -3.12222195      -20.0000000       4.21268892      0.611894667    
  -45.7611885      -3.12411094      -20.0000000       4.21268892      0.611894667    
  -51.7500000       1.29565406      -20.0000000       4.57595968      0.645461202    
  -50.2459984       1.47492099      -20.0000000       4.57595968      0.645461202    
  -50.2816200      -7.23225027E-02  -20.0000000       4.57595968      0.645461202    
  -51.7686501     -0.191007897      -20.0000000       4.57595968      0.645461202    
  -47.2550507      -3.12222195      -20.0000000       4.24180889      0.624592185    
  -48.7254105      -3.12169194      -20.0000000       4.24180889      0.624592185    
  -48.7658615      -1.56390297      -20.0000000       4.24180889      0.624592185    
  -47.2643318      -1.55986798      -20.0000000       4.24180889      0.624592185    
  -48.7658615      -1.56390297      -20.0000000       4.36421728      0.635901272    
  -50.2854195      -1.59545600      -20.0000000       4.36421728      0.635901272    
  -50.2816200      -7.23225027E-02  -20.0000000       4.36421728      0.635901272    
  -48.7753716      -1.42937005E-02  -20.0000000       4.36421728      0.635901272    
  -54.5736809       4.04919481      -20.0000000       5.26767397      0.665782690    
  -53.0954399       4.36336088      -20.0000000       5.26767397      0.665782690    
  -53.0367393       2.70281792      -20.0000000       5.26767397      0.665782690    
  -54.3531990       2.57653904      -20.0000000       5.26767397      0.665782690    
  -54.6465797       5.53822613      -20.0000000       5.93555212      0.674339652    
  -54.5736809       4.04919481      -20.0000000       5.93555212      0.674339652    
  -55.8850899       4.68635893      -20.0000000       5.93555212      0.674339652    
  -55.8850899       4.68635893      -20.0000000       5.93555212      0.674339652    
  -44.2670212      -4.68766403      -20.0000000       4.09862661      0.588383913    
  -42.7620697      -4.68767691      -20.0000000       4.09862661      0.588383913    
  -42.7680206      -6.25000000      -20.0000000       4.09862661      0.588383913    
  -44.2742119      -6.25000000      -20.0000000       4.09862661      0.588383913    
  -44.2670212      -4.68766403      -20.0000000       4.01415682      0.602345705    
  -45.7679100      -4.68779421      -20.0000000       4.01415682      0.602345705    
  -45.7611885      -3.12411094      -20.0000000       4.01415682      0.602345705    
  -44.2611694      -3.12488103      -20.0000000       4.01415682      0.602345705    
  -45.7611885      -3.12411094      -20.0000000       4.05775452      0.615325153    
  -47.2550507      -3.12222195      -20.0000000       4.05775452      0.615325153    
  -47.2643318      -1.55986798      -20.0000000       4.05775452      0.615325153    
  -45.7603798      -1.56126106      -20.0000000       4.05775452      0.615325153    
  -50.2459984       1.47492099      -20.0000000       4.62611771      0.646543324    
  -51.7500000       1.29565406      -20.0000000       4.62611771      0.646543324    
  -51.6464691       2.90894699      -20.0000000       4.62611771      0.646543324    
  -50.2011604       3.04989505      -20.0000000       4.62611771      0.646543324    
  -54.6465797       5.53822613      -20.0000000       5.58230448      0.672058582    
  -53.2416306       6.06926107      -20.0000000       5.58230448      0.672058582    
  -53.0954399       4.36336088      -20.0000000       5.58230448      0.672058582    
  -54.5736809       4.04919481      -20.0000000       5.58230448      0.672058582    
  -47.2643318      -1.55986798      -20.0000000       4.17198896      0.626327693    
  -48.7658615      -1.56390297      -20.0000000       4.17198896      0.626327693    
  -48.7753716      -1.42937005E-02  -20.0000000       4.17198896      0.626327693    
  -47.2657204       0.00000000      -20.0000000       4.17198896      0.626327693    
  -48.7753716      -1.42937005E-02  -20.0000000       4.36091185      0.635813355    
  -50.2816200      -7.23225027E-02  -20.0000000       4.36091185      0.635813355    
  -50.2459984       1.47492099      -20.0000000       4.36091185      0.635813355    
  -48.7560692       1.53868604      -20.0000000       4.36091185      0.635813355    
  -51.6464691       2.90894699      -20.0000000       4.98574162      0.659651101    
  -53.0367393       2.70281792      -20.0000000       4.98574162      0.659651101    
  -53.0954399       4.36336088      -20.0000000       4.98574162      0.659651101    
  -51.6648903       4.56408405      -20.0000000       4.98574162      0.659651101    
  -41.2618294      -6.25000000      -20.0000000       3.86564493      0.577036202    
  -42.7680206      -6.25000000      -20.0000000       3.86564493      0.577036202    
  -42.7620697      -4.68767691      -20.0000000       3.86564493      0.577036202    
  -41.2566490      -4.68782711      -20.0000000       3.86564493      0.577036202    
  -44.2611694      -3.12488103      -20.0000000       3.80504417      0.592792928    
  -42.7563400      -3.12513494      -20.0000000       3.80504417      0.592792928    
  -42.7620697      -4.68767691      -20.0000000       3.80504417      0.592792928    
  -44.2670212      -4.68766403      -20.0000000       3.80504417      0.592792928    
  -44.2611694      -3.12488103      -20.0000000       3.86478901      0.607003212    
  -45.7611885      -3.12411094      -20.0000000       3.86478901      0.607003212    
  -45.7603798      -1.56126106      -20.0000000       3.86478901      0.607003212    
  -44.2565308      -1.56226599      -20.0000000       3.86478901      0.607003212    
  -45.7603798      -1.56126106      -20.0000000       3.98712063      0.618186951    
  -47.2643318      -1.55986798      -20.0000000       3.98712063      0.618186951    
  -47.2657204       0.00000000      -20.0000000       3.98712063      0.618186951    
  -45.7582893       0.00000000      -20.0000000       3.98712063      0.618186951    
  -47.2657204       0.00000000      -20.0000000       4.17121410      0.626286447    
  -48.7753716      -1.42937005E-02  -20.0000000       4.17121410      0.626286447    
  -48.7560692       1.53868604      -20.0000000       4.17121410      0.626286447    
  -47.2535896       1.55706894      -20.0000000       4.17121410      0.626286447    
  -48.7560692       1.53868604      -20.0000000       4.42421627      0.635427237    
  -50.2459984       1.47492099      -20.0000000       4.42421627      0.635427237    
  -50.2011604       3.04989505      -20.0000000       4.42421627      0.635427237    
  -48.7281189       3.10503101      -20.0000000       4.42421627      0.635427237    
  -50.2011604       3.04989505      -20.0000000       4.76477289      0.649084330    
  -51.6464691       2.90894699      -20.0000000       4.76477289      0.649084330    
  -51.6648903       4.56408405      -20.0000000       4.76477289      0.649084330    
  -50.2067184       4.64797401      -20.0000000       4.76477289      0.649084330    
  -51.6648903       4.56408405      -20.0000000       5.31393147      0.665213704    
  -53.0954399       4.36336088      -20.0000000       5.31393147      0.665213704    
  -53.2416306       6.06926107      -20.0000000       5.31393147      0.665213704    
  -51.7500000       6.25000000      -20.0000000       5.31393147      0.665213704    
  -39.7556496      -6.25000000      -20.0000000       3.63286161      0.564150035    
  -41.2618294      -6.25000000      -20.0000000       3.63286161      0.564150035    
  -41.2566490      -4.68782711      -20.0000000       3.63286161      0.564150035    
  -39.7507591      -4.68851089      -20.0000000       3.63286161      0.564150035    
  -41.2566490      -4.68782711      -20.0000000       3.59414983      0.581713378    
  -42.7620697      -4.68767691      -20.0000000       3.59414983      0.581713378    
  -42.7563400      -3.12513494      -20.0000000       3.59414983      0.581713378    
  -41.2511406      -3.12541890      -20.0000000       3.59414983      0.581713378    
  -44.2565308      -1.56226599      -20.0000000       3.66440105      0.597839236    
  -42.7509499      -1.56253600      -20.0000000       3.66440105      0.597839236    
  -42.7563400      -3.12513494      -20.0000000       3.66440105      0.597839236    
  -44.2611694      -3.12488103      -20.0000000       3.66440105      0.597839236    
  -44.2565308      -1.56226599      -20.0000000       3.79705667      0.610507250    
  -45.7603798      -1.56126106      -20.0000000       3.79705667      0.610507250    
  -45.7582893       0.00000000      -20.0000000       3.79705667      0.610507250    
  -44.2515602       0.00000000      -20.0000000       3.79705667      0.610507250    
  -45.7582893       0.00000000      -20.0000000       3.98673177      0.618139982    
  -47.2657204       0.00000000      -20.0000000       3.98673177      0.618139982    
  -47.2535896       1.55706894      -20.0000000       3.98673177      0.618139982    
  -45.7509003       1.56100297      -20.0000000       3.98673177      0.618139982    
  -47.2535896       1.55706894      -20.0000000       4.24093390      0.624487758    
  -48.7560692       1.53868604      -20.0000000       4.24093390      0.624487758    
  -48.7281189       3.10503101      -20.0000000       4.24093390      0.624487758    
  -47.2370110       3.11982203      -20.0000000       4.24093390      0.624487758    
  -48.7281189       3.10503101      -20.0000000       4.57568741      0.635772109    
  -50.2011604       3.04989505      -20.0000000       4.57568741      0.635772109    
  -50.2067184       4.64797401      -20.0000000       4.57568741      0.635772109    
  -48.7241211       4.67746210      -20.0000000       4.57568741      0.635772109    
  -50.2067184       4.64797401      -20.0000000       5.09458351      0.653182626    
  -51.6648903       4.56408405      -20.0000000       5.09458351      0.653182626    
  -51.7500000       6.25000000      -20.0000000       5.09458351      0.653182626    
  -50.2455711       6.25000000      -20.0000000       5.09458351      0.653182626    
  -38.2494698      -6.25000000      -20.0000000       3.40835977      0.548313797    
  -39.7556496      -6.25000000      -20.0000000       3.40835977      0.548313797    
  -39.7507591      -4.68851089      -20.0000000       3.40835977      0.548313797    
  -38.2446404      -4.68936491      -20.0000000       3.40835977      0.548313797    
  -39.7507591      -4.68851089      -20.0000000       3.39087152      0.568148732    
  -41.2566490      -4.68782711      -20.0000000       3.39087152      0.568148732    
  -41.2511406      -3.12541890      -20.0000000       3.39087152      0.568148732    
  -39.7453995      -3.12673903      -20.0000000       3.39087152      0.568148732    
  -41.2511406      -3.12541890      -20.0000000       3.46444988      0.586307585    
  -42.7563400      -3.12513494      -20.0000000       3.46444988      0.586307585    
  -42.7509499      -1.56253600      -20.0000000       3.46444988      0.586307585    
  -41.2455711      -1.56282198      -20.0000000       3.46444988      0.586307585    
  -44.2515602       0.00000000      -20.0000000       3.60096002      0.601358354    
  -42.7457504       0.00000000      -20.0000000       3.60096002      0.601358354    
  -42.7509499      -1.56253600      -20.0000000       3.60096002      0.601358354    
  -44.2565308      -1.56226599      -20.0000000       3.60096002      0.601358354    
  -44.2515602       0.00000000      -20.0000000       3.79657316      0.610455990    
  -45.7582893       0.00000000      -20.0000000       3.79657316      0.610455990    
  -45.7509003       1.56100297      -20.0000000       3.79657316      0.610455990    
  -44.2452011       1.56199801      -20.0000000       3.79657316      0.610455990    
  -45.7509003       1.56100297      -20.0000000       4.05700588      0.615182519    
  -47.2535896       1.55706894      -20.0000000       4.05700588      0.615182519    
  -47.2370110       3.11982203      -20.0000000       4.05700588      0.615182519    
  -45.7402802       3.12332392      -20.0000000       4.05700588      0.615182519    
  -47.2370110       3.11982203      -20.0000000       4.39631796      0.622709751    
  -48.7281189       3.10503101      -20.0000000       4.39631796      0.622709751    
  -48.7241211       4.67746210      -20.0000000       4.39631796      0.622709751    
  -47.2300911       4.68496799      -20.0000000       4.39631796      0.622709751    
  -48.7241211       4.67746210      -20.0000000       4.90328407      0.638189018    
  -50.2067184       4.64797401      -20.0000000       4.90328407      0.638189018    
  -50.2455711       6.25000000      -20.0000000       4.90328407      0.638189018    
  -48.7411499       6.25000000      -20.0000000       4.90328407      0.638189018    
  -36.7432899      -6.25000000      -20.0000000       3.19689035      0.528487265    
  -38.2494698      -6.25000000      -20.0000000       3.19689035      0.528487265    
  -38.2446404      -4.68936491      -20.0000000       3.19689035      0.528487265    
  -36.7384796      -4.68897390      -20.0000000       3.19689035      0.528487265    
  -38.2446404      -4.68936491      -20.0000000       3.19941974      0.551469684    
  -39.7507591      -4.68851089      -20.0000000       3.19941974      0.551469684    
  -39.7453995      -3.12673903      -20.0000000       3.19941974      0.551469684    
  -38.2396507      -3.12933803      -20.0000000       3.19941974      0.551469684    
  -39.7453995      -3.12673903      -20.0000000       3.27457285      0.571794748    
  -41.2511406      -3.12541890      -20.0000000       3.27457285      0.571794748    
  -41.2455711      -1.56282198      -20.0000000       3.27457285      0.571794748    
  -39.7399902      -1.56351995      -20.0000000       3.27457285      0.571794748    
  -41.2455711      -1.56282198      -20.0000000       3.40633249      0.589336097    
  -42.7509499      -1.56253600      -20.0000000       3.40633249      0.589336097    
  -42.7457504       0.00000000      -20.0000000       3.40633249      0.589336097    
  -41.2401695       0.00000000      -20.0000000       3.40633249      0.589336097    
  -44.2452011       1.56199801      -20.0000000       3.60054994      0.601299405    
  -42.7402611       1.56238496      -20.0000000       3.60054994      0.601299405    
  -42.7457504       0.00000000      -20.0000000       3.60054994      0.601299405    
  -44.2515602       0.00000000      -20.0000000       3.60054994      0.601299405    
  -44.2452011       1.56199801      -20.0000000       3.86411119      0.606867492    
  -45.7509003       1.56100297      -20.0000000       3.86411119      0.606867492    
  -45.7402802       3.12332392      -20.0000000       3.86411119      0.606867492    
  -44.2380295       3.12447906      -20.0000000       3.86411119      0.606867492    
  -45.7402802       3.12332392      -20.0000000       4.21032286      0.611619651    
  -47.2370110       3.11982203      -20.0000000       4.21032286      0.611619651    
  -47.2300911       4.68496799      -20.0000000       4.21032286      0.611619651    
  -45.7329903       4.68700409      -20.0000000       4.21032286      0.611619651    
  -47.2300911       4.68496799      -20.0000000       4.72012615      0.623321474    
  -48.7241211       4.67746210      -20.0000000       4.72012615      0.623321474    
  -48.7411499       6.25000000      -20.0000000       4.72012615      0.623321474    
  -47.2367287       6.25000000      -20.0000000       4.72012615      0.623321474    
  -35.2371101      -6.25000000      -20.0000000       2.99936724      0.504817307    
  -36.7432899      -6.25000000      -20.0000000       2.99936724      0.504817307    
  -36.7384796      -4.68897390      -20.0000000       2.99936724      0.504817307    
  -35.2325211      -4.68835878      -20.0000000       2.99936724      0.504817307    
  -36.7384796      -4.68897390      -20.0000000       3.02147388      0.531461656    
  -38.2446404      -4.68936491      -20.0000000       3.02147388      0.531461656    
  -38.2396507      -3.12933803      -20.0000000       3.02147388      0.531461656    
  -36.7339096      -3.12783909      -20.0000000       3.02147388      0.531461656    
  -38.2396507      -3.12933803      -20.0000000       3.09810305      0.554158866    
  -39.7453995      -3.12673903      -20.0000000       3.09810305      0.554158866    
  -39.7399902      -1.56351995      -20.0000000       3.09810305      0.554158866    
  -38.2346497      -1.56438303      -20.0000000       3.09810305      0.554158866    
  -39.7399902      -1.56351995      -20.0000000       3.22283626      0.574071229    
  -41.2455711      -1.56282198      -20.0000000       3.22283626      0.574071229    
  -41.2401695       0.00000000      -20.0000000       3.22283626      0.574071229    