 VARIABLES="X" "Y" "Z" "abs(p) (Pa)" "angle(p) (rad)"
ZONE N=   3650,E =    3624, F=FEPOINT, ET=QUADRILATERAL
  -56.5164909      -2.47323704      -20.0000000       1624.23914       1.47447145    
  -55.4176407      -3.26747894      -20.0000000       1624.23914       1.47447145    
  -55.9264717      -4.64953518      -20.0000000       1624.23914       1.47447145    
  -56.9148483      -3.51935697      -20.0000000       1624.23914       1.47447145    
  -56.9148483      -3.51935697      -20.0000000       1928.21094       1.52011132    
  -57.6058807      -2.18402195      -20.0000000       1928.21094       1.52011132    
  -56.5164909      -2.47323704      -20.0000000       1928.21094       1.52011132    
  -56.5164909      -2.47323704      -20.0000000       1928.21094       1.52011132    
  -54.6953812      -5.51239681      -20.0000000       1337.15088       1.39841437    
  -55.9264717      -4.64953518      -20.0000000       1337.15088       1.39841437    
  -55.4176407      -3.26747894      -20.0000000       1337.15088       1.39841437    
  -54.2450790      -3.94889998      -20.0000000       1337.15088       1.39841437    
  -54.2450790      -3.94889998      -20.0000000       1061.37878       1.27740872    
  -52.9834785      -4.46340179      -20.0000000       1061.37878       1.27740872    
  -53.2955093      -6.05576801      -20.0000000       1061.37878       1.27740872    
  -54.6953812      -5.51239681      -20.0000000       1061.37878       1.27740872    
  -56.5223999      -1.11500299      -20.0000000       1884.02307       1.52791822    
  -56.5164909      -2.47323704      -20.0000000       1884.02307       1.52791822    
  -57.6058807      -2.18402195      -20.0000000       1884.02307       1.52791822    
  -57.9577713     -0.724482894      -20.0000000       1884.02307       1.52791822    
  -56.5164909      -2.47323704      -20.0000000       1412.75830       1.46084166    
  -56.5223999      -1.11500299      -20.0000000       1412.75830       1.46084166    
  -55.1657600      -1.76926601      -20.0000000       1412.75830       1.46084166    
  -55.4176407      -3.26747894      -20.0000000       1412.75830       1.46084166    
  -54.2450790      -3.94889998      -20.0000000       1138.95105       1.37721670    
  -55.4176407      -3.26747894      -20.0000000       1138.95105       1.37721670    
  -55.1657600      -1.76926601      -20.0000000       1138.95105       1.37721670    
  -53.8819199      -2.32836604      -20.0000000       1138.95105       1.37721670    
  -52.9834785      -4.46340179      -20.0000000       816.520386       1.08327091    
  -51.6155815      -4.69134283      -20.0000000       816.520386       1.08327091    
  -51.8049088      -6.24783087      -20.0000000       816.520386       1.08327091    
  -53.2955093      -6.05576801      -20.0000000       816.520386       1.08327091    
  -56.3964119      0.254809886      -20.0000000       1875.23206       1.53213811    
  -56.5223999      -1.11500299      -20.0000000       1875.23206       1.53213811    
  -57.9577713     -0.724482894      -20.0000000       1875.23206       1.53213811    
  -57.9511719      0.779103875      -20.0000000       1875.23206       1.53213811    
  -53.8819199      -2.32836604      -20.0000000       930.325439       1.26564705    
  -52.7235603      -2.92538095      -20.0000000       930.325439       1.26564705    
  -52.9834785      -4.46340179      -20.0000000       930.325439       1.26564705    
  -54.2450790      -3.94889998      -20.0000000       930.325439       1.26564705    
  -56.5223999      -1.11500299      -20.0000000       1344.12927       1.45606482    
  -56.3964119      0.254809886      -20.0000000       1344.12927       1.45606482    
  -54.8835487     -0.325594515      -20.0000000       1344.12927       1.45606482    
  -55.1657600      -1.76926601      -20.0000000       1344.12927       1.45606482    
  -50.2990494      -6.25000000      -20.0000000       645.553711      0.802278161    
  -51.8049088      -6.24783087      -20.0000000       645.553711      0.802278161    
  -51.6155815      -4.69134283      -20.0000000       645.553711      0.802278161    
  -50.1911316      -4.70199823      -20.0000000       645.553711      0.802278161    
  -53.8819199      -2.32836604      -20.0000000       1043.73853       1.35831523    
  -55.1657600      -1.76926601      -20.0000000       1043.73853       1.35831523    
  -54.8835487     -0.325594515      -20.0000000       1043.73853       1.35831523    
  -53.3087082     -0.726661325      -20.0000000       1043.73853       1.35831523    
  -52.7235603      -2.92538095      -20.0000000       754.729919       1.10614109    
  -51.4683685      -3.18431592      -20.0000000       754.729919       1.10614109    
  -51.6155815      -4.69134283      -20.0000000       754.729919       1.10614109    
  -52.9834785      -4.46340179      -20.0000000       754.729919       1.10614109    
  -56.1067696       1.60355306      -20.0000000       1820.41846       1.52348161    
  -56.3964119      0.254809886      -20.0000000       1820.41846       1.52348161    
  -57.9511719      0.779103875      -20.0000000       1820.41846       1.52348161    
  -57.5863686       2.23558092      -20.0000000       1820.41846       1.52348161    
  -56.3964119      0.254809886      -20.0000000       1291.19067       1.44331741    
  -56.1067696       1.60355306      -20.0000000       1291.19067       1.44331741    
  -54.6488190       1.11988902      -20.0000000       1291.19067       1.44331741    
  -54.8835487     -0.325594515      -20.0000000       1291.19067       1.44331741    
  -51.8859215      -1.67511594      -20.0000000       838.432068       1.23292625    
  -52.7235603      -2.92538095      -20.0000000       838.432068       1.23292625    
  -53.8819199      -2.32836604      -20.0000000       838.432068       1.23292625    
  -53.3087082     -0.726661325      -20.0000000       838.432068       1.23292625    
  -48.7928200      -6.25000000      -20.0000000       566.229004      0.468032658    
  -50.2990494      -6.25000000      -20.0000000       566.229004      0.468032658    
  -50.1911316      -4.70199823      -20.0000000       566.229004      0.468032658    
  -48.7387619      -4.69004917      -20.0000000       566.229004      0.468032658    
  -50.1911316      -4.70199823      -20.0000000       618.355591      0.886944115    
  -51.6155815      -4.69134283      -20.0000000       618.355591      0.886944115    
  -51.4683685      -3.18431592      -20.0000000       618.355591      0.886944115    
  -50.1564102      -3.12996602      -20.0000000       618.355591      0.886944115    
  -54.6488190       1.11988902      -20.0000000       990.582764       1.33799326    
  -53.2043991       1.01675200      -20.0000000       990.582764       1.33799326    
  -53.3087082     -0.726661325      -20.0000000       990.582764       1.33799326    
  -54.8835487     -0.325594515      -20.0000000       990.582764       1.33799326    
  -51.4683685      -3.18431592      -20.0000000       727.654236       1.11457109    
  -52.7235603      -2.92538095      -20.0000000       727.654236       1.11457109    
  -51.8859215      -1.67511594      -20.0000000       727.654236       1.11457109    
  -51.8859215      -1.67511594      -20.0000000       727.654236       1.11457109    
  -55.6295395       2.91055298      -20.0000000       1713.43848       1.49973214    
  -56.1067696       1.60355306      -20.0000000       1713.43848       1.49973214    
  -57.5863686       2.23558092      -20.0000000       1713.43848       1.49973214    
  -56.8836594       3.56473303      -20.0000000       1713.43848       1.49973214    
  -47.2866096      -6.25000000      -20.0000000       561.275269      0.144229472    
  -48.7928200      -6.25000000      -20.0000000       561.275269      0.144229472    
  -48.7387619      -4.69004917      -20.0000000       561.275269      0.144229472    
  -47.2626686      -4.68801212      -20.0000000       561.275269      0.144229472    
  -48.7387619      -4.69004917      -20.0000000       534.642212      0.615013242    
  -50.1911316      -4.70199823      -20.0000000       534.642212      0.615013242    
  -50.1564102      -3.12996602      -20.0000000       534.642212      0.615013242    
  -48.7254105      -3.12169194      -20.0000000       534.642212      0.615013242    
  -50.1564102      -3.12996602      -20.0000000       623.142334      0.966043174    
  -51.4683685      -3.18431592      -20.0000000       623.142334      0.966043174    
  -51.8859215      -1.67511594      -20.0000000       623.142334      0.966043174    
  -50.2854195      -1.59545600      -20.0000000       623.142334      0.966043174    
  -54.6488190       1.11988902      -20.0000000       1237.66077       1.41904294    
  -56.1067696       1.60355306      -20.0000000       1237.66077       1.41904294    
  -55.6295395       2.91055298      -20.0000000       1237.66077       1.41904294    
  -54.3531990       2.57653904      -20.0000000       1237.66077       1.41904294    
  -51.7686501     -0.191007897      -20.0000000       758.568542       1.17379725    
  -51.8859215      -1.67511594      -20.0000000       758.568542       1.17379725    
  -53.3087082     -0.726661325      -20.0000000       758.568542       1.17379725    
  -53.3087082     -0.726661325      -20.0000000       758.568542       1.17379725    
  -51.7686501     -0.191007897      -20.0000000       782.438171       1.19865823    
  -53.3087082     -0.726661325      -20.0000000       782.438171       1.19865823    
  -53.2043991       1.01675200      -20.0000000       782.438171       1.19865823    
  -51.7500000       1.29565406      -20.0000000       782.438171       1.19865823    
  -53.0367393       2.70281792      -20.0000000       966.132507       1.31484628    
  -53.2043991       1.01675200      -20.0000000       966.132507       1.31484628    
  -54.6488190       1.11988902      -20.0000000       966.132507       1.31484628    
  -54.3531990       2.57653904      -20.0000000       966.132507       1.31484628    
  -45.7804108      -6.25000000      -20.0000000       602.849121     -0.113397613    
  -47.2866096      -6.25000000      -20.0000000       602.849121     -0.113397613    
  -47.2626686      -4.68801212      -20.0000000       602.849121     -0.113397613    
  -45.7679100      -4.68779421      -20.0000000       602.849121     -0.113397613    
  -47.2626686      -4.68801212      -20.0000000       504.469727      0.315171272    
  -48.7387619      -4.69004917      -20.0000000       504.469727      0.315171272    
  -48.7254105      -3.12169194      -20.0000000       504.469727      0.315171272    
  -47.2550507      -3.12222195      -20.0000000       504.469727      0.315171272    
  -54.5736809       4.04919481      -20.0000000       1506.33179       1.44825900    
  -55.6295395       2.91055298      -20.0000000       1506.33179       1.44825900    
  -56.8836594       3.56473303      -20.0000000       1506.33179       1.44825900    
  -55.8850899       4.68635893      -20.0000000       1506.33179       1.44825900    
  -48.7254105      -3.12169194      -20.0000000       527.006897      0.708563328    
  -50.1564102      -3.12996602      -20.0000000       527.006897      0.708563328    
  -50.2854195      -1.59545600      -20.0000000       527.006897      0.708563328    
  -48.7658615      -1.56390297      -20.0000000       527.006897      0.708563328    
  -50.2854195      -1.59545600      -20.0000000       631.259583       1.00836074    
  -51.8859215      -1.67511594      -20.0000000       631.259583       1.00836074    
  -51.7686501     -0.191007897      -20.0000000       631.259583       1.00836074    
  -50.2816200      -7.23225027E-02  -20.0000000       631.259583       1.00836074    
  -55.6295395       2.91055298      -20.0000000       1191.65845       1.38809431    
  -54.5736809       4.04919481      -20.0000000       1191.65845       1.38809431    
  -54.3531990       2.57653904      -20.0000000       1191.65845       1.38809431    
  -54.3531990       2.57653904      -20.0000000       1191.65845       1.38809431    
  -51.6464691       2.90894699      -20.0000000       771.281189       1.17268682    
  -51.7500000       1.29565406      -20.0000000       771.281189       1.17268682    
  -53.2043991       1.01675200      -20.0000000       771.281189       1.17268682    
  -53.0367393       2.70281792      -20.0000000       771.281189       1.17268682    
  -44.2742119      -6.25000000      -20.0000000       664.131653     -0.295935750    
  -45.7804108      -6.25000000      -20.0000000       664.131653     -0.295935750    
  -45.7679100      -4.68779421      -20.0000000       664.131653     -0.295935750    
  -44.2670212      -4.68766403      -20.0000000       664.131653     -0.295935750    
  -45.7679100      -4.68779421      -20.0000000       518.080505       4.59678434E-02
  -47.2626686      -4.68801212      -20.0000000       518.080505       4.59678434E-02
  -47.2550507      -3.12222195      -20.0000000       518.080505       4.59678434E-02
  -45.7611885      -3.12411094      -20.0000000       518.080505       4.59678434E-02
  -51.7500000       1.29565406      -20.0000000       626.631775       1.00256836    
  -50.2459984       1.47492099      -20.0000000       626.631775       1.00256836    
  -50.2816200      -7.23225027E-02  -20.0000000       626.631775       1.00256836    
  -51.7686501     -0.191007897      -20.0000000       626.631775       1.00256836    
  -47.2550507      -3.12222195      -20.0000000       482.987152      0.420018137    
  -48.7254105      -3.12169194      -20.0000000       482.987152      0.420018137    
  -48.7658615      -1.56390297      -20.0000000       482.987152      0.420018137    
  -47.2643318      -1.55986798      -20.0000000       482.987152      0.420018137    
  -48.7658615      -1.56390297      -20.0000000       526.973938      0.756874204    
  -50.2854195      -1.59545600      -20.0000000       526.973938      0.756874204    
  -50.2816200      -7.23225027E-02  -20.0000000       526.973938      0.756874204    
  -48.7753716      -1.42937005E-02  -20.0000000       526.973938      0.756874204    
  -54.5736809       4.04919481      -20.0000000       980.953552       1.29353476    
  -53.0954399       4.36336088      -20.0000000       980.953552       1.29353476    
  -53.0367393       2.70281792      -20.0000000       980.953552       1.29353476    
  -54.3531990       2.57653904      -20.0000000       980.953552       1.29353476    
  -54.6465797       5.53822613      -20.0000000       1377.97742       1.39393628    
  -54.5736809       4.04919481      -20.0000000       1377.97742       1.39393628    
  -55.8850899       4.68635893      -20.0000000       1377.97742       1.39393628    
  -55.8850899       4.68635893      -20.0000000       1377.97742       1.39393628    
  -44.2670212      -4.68766403      -20.0000000       727.788574     -0.421545953    
  -42.7620697      -4.68767691      -20.0000000       727.788574     -0.421545953    
  -42.7680206      -6.25000000      -20.0000000       727.788574     -0.421545953    
  -44.2742119      -6.25000000      -20.0000000       727.788574     -0.421545953    
  -44.2670212      -4.68766403      -20.0000000       556.675232     -0.161457047    
  -45.7679100      -4.68779421      -20.0000000       556.675232     -0.161457047    
  -45.7611885      -3.12411094      -20.0000000       556.675232     -0.161457047    
  -44.2611694      -3.12488103      -20.0000000       556.675232     -0.161457047    
  -45.7611885      -3.12411094      -20.0000000       481.851196      0.147226870    
  -47.2550507      -3.12222195      -20.0000000       481.851196      0.147226870    
  -47.2643318      -1.55986798      -20.0000000       481.851196      0.147226870    
  -45.7603798      -1.56126106      -20.0000000       481.851196      0.147226870    
  -50.2459984       1.47492099      -20.0000000       623.407776      0.971072912    
  -51.7500000       1.29565406      -20.0000000       623.407776      0.971072912    
  -51.6464691       2.90894699      -20.0000000       623.407776      0.971072912    
  -50.2011604       3.04989505      -20.0000000       623.407776      0.971072912    
  -54.6465797       5.53822613      -20.0000000       1073.99902       1.28297532    
  -53.2416306       6.06926107      -20.0000000       1073.99902       1.28297532    
  -53.0954399       4.36336088      -20.0000000       1073.99902       1.28297532    
  -54.5736809       4.04919481      -20.0000000       1073.99902       1.28297532    
  -47.2643318      -1.55986798      -20.0000000       475.572815      0.472045809    
  -48.7658615      -1.56390297      -20.0000000       475.572815      0.472045809    
  -48.7753716      -1.42937005E-02  -20.0000000       475.572815      0.472045809    
  -47.2657204       0.00000000      -20.0000000       475.572815      0.472045809    
  -48.7753716      -1.42937005E-02  -20.0000000       526.337402      0.755362809    
  -50.2816200      -7.23225027E-02  -20.0000000       526.337402      0.755362809    
  -50.2459984       1.47492099      -20.0000000       526.337402      0.755362809    
  -48.7560692       1.53868604      -20.0000000       526.337402      0.755362809    
  -51.6464691       2.90894699      -20.0000000       773.078918       1.13194406    
  -53.0367393       2.70281792      -20.0000000       773.078918       1.13194406    
  -53.0954399       4.36336088      -20.0000000       773.078918       1.13194406    
  -51.6648903       4.56408405      -20.0000000       773.078918       1.13194406    
  -41.2618294      -6.25000000      -20.0000000       784.564331     -0.508384883    
  -42.7680206      -6.25000000      -20.0000000       784.564331     -0.508384883    
  -42.7620697      -4.68767691      -20.0000000       784.564331     -0.508384883    
  -41.2566490      -4.68782711      -20.0000000       784.564331     -0.508384883    
  -44.2611694      -3.12488103      -20.0000000       603.789551     -0.310446858    
  -42.7563400      -3.12513494      -20.0000000       603.789551     -0.310446858    
  -42.7620697      -4.68767691      -20.0000000       603.789551     -0.310446858    
  -44.2670212      -4.68766403      -20.0000000       603.789551     -0.310446858    
  -44.2611694      -3.12488103      -20.0000000       507.898163      -7.33011067E-02
  -45.7611885      -3.12411094      -20.0000000       507.898163      -7.33011067E-02
  -45.7603798      -1.56126106      -20.0000000       507.898163      -7.33011067E-02
  -44.2565308      -1.56226599      -20.0000000       507.898163      -7.33011067E-02
  -45.7603798      -1.56126106      -20.0000000       467.497375      0.197775617    
  -47.2643318      -1.55986798      -20.0000000       467.497375      0.197775617    
  -47.2657204       0.00000000      -20.0000000       467.497375      0.197775617    
  -45.7582893       0.00000000      -20.0000000       467.497375      0.197775617    
  -47.2657204       0.00000000      -20.0000000       475.524506      0.470889449    
  -48.7753716      -1.42937005E-02  -20.0000000       475.524506      0.470889449    
  -48.7560692       1.53868604      -20.0000000       475.524506      0.470889449    
  -47.2535896       1.55706894      -20.0000000       475.524506      0.470889449    
  -48.7560692       1.53868604      -20.0000000       526.998901      0.709610939    
  -50.2459984       1.47492099      -20.0000000       526.998901      0.709610939    
  -50.2011604       3.04989505      -20.0000000       526.998901      0.709610939    
  -48.7281189       3.10503101      -20.0000000       526.998901      0.709610939    
  -50.2011604       3.04989505      -20.0000000       624.434631      0.906932354    
  -51.6464691       2.90894699      -20.0000000       624.434631      0.906932354    
  -51.6648903       4.56408405      -20.0000000       624.434631      0.906932354    
  -50.2067184       4.64797401      -20.0000000       624.434631      0.906932354    
  -51.6648903       4.56408405      -20.0000000       815.970215       1.08548498    
  -53.0954399       4.36336088      -20.0000000       815.970215       1.08548498    
  -53.2416306       6.06926107      -20.0000000       815.970215       1.08548498    
  -51.7500000       6.25000000      -20.0000000       815.970215       1.08548498    
  -39.7556496      -6.25000000      -20.0000000       829.998596     -0.569357753    
  -41.2618294      -6.25000000      -20.0000000       829.998596     -0.569357753    
  -41.2566490      -4.68782711      -20.0000000       829.998596     -0.569357753    
  -39.7507591      -4.68851089      -20.0000000       829.998596     -0.569357753    
  -41.2566490      -4.68782711      -20.0000000       649.242737     -0.415833026    
  -42.7620697      -4.68767691      -20.0000000       649.242737     -0.415833026    
  -42.7563400      -3.12513494      -20.0000000       649.242737     -0.415833026    
  -41.2511406      -3.12541890      -20.0000000       649.242737     -0.415833026    
  -44.2565308      -1.56226599      -20.0000000       545.723328     -0.236702457    
  -42.7509499      -1.56253600      -20.0000000       545.723328     -0.236702457    
  -42.7563400      -3.12513494      -20.0000000       545.723328     -0.236702457    
  -44.2611694      -3.12488103      -20.0000000       545.723328     -0.236702457    
  -44.2565308      -1.56226599      -20.0000000       487.675751      -2.86714323E-02
  -45.7603798      -1.56126106      -20.0000000       487.675751      -2.86714323E-02
  -45.7582893       0.00000000      -20.0000000       487.675751      -2.86714323E-02
  -44.2515602       0.00000000      -20.0000000       487.675751      -2.86714323E-02
  -45.7582893       0.00000000      -20.0000000       467.664612      0.196560681    
  -47.2657204       0.00000000      -20.0000000       467.664612      0.196560681    
  -47.2535896       1.55706894      -20.0000000       467.664612      0.196560681    
  -45.7509003       1.56100297      -20.0000000       467.664612      0.196560681    
  -47.2535896       1.55706894      -20.0000000       483.106049      0.417519897    
  -48.7560692       1.53868604      -20.0000000       483.106049      0.417519897    
  -48.7281189       3.10503101      -20.0000000       483.106049      0.417519897    
  -47.2370110       3.11982203      -20.0000000       483.106049      0.417519897    
  -48.7281189       3.10503101      -20.0000000       535.180847      0.618949533    
  -50.2011604       3.04989505      -20.0000000       535.180847      0.618949533    
  -50.2067184       4.64797401      -20.0000000       535.180847      0.618949533    
  -48.7241211       4.67746210      -20.0000000       535.180847      0.618949533    
  -50.2067184       4.64797401      -20.0000000       644.479858      0.802885413    
  -51.6648903       4.56408405      -20.0000000       644.479858      0.802885413    
  -51.7500000       6.25000000      -20.0000000       644.479858      0.802885413    
  -50.2455711       6.25000000      -20.0000000       644.479858      0.802885413    
  -38.2494698      -6.25000000      -20.0000000       862.203979     -0.612620652    
  -39.7556496      -6.25000000      -20.0000000       862.203979     -0.612620652    
  -39.7507591      -4.68851089      -20.0000000       862.203979     -0.612620652    
  -38.2446404      -4.68936491      -20.0000000       862.203979     -0.612620652    
  -39.7507591      -4.68851089      -20.0000000       687.639954     -0.490914077    
  -41.2566490      -4.68782711      -20.0000000       687.639954     -0.490914077    
  -41.2511406      -3.12541890      -20.0000000       687.639954     -0.490914077    
  -39.7453995      -3.12673903      -20.0000000       687.639954     -0.490914077    
  -41.2511406      -3.12541890      -20.0000000       584.668945     -0.354070961    
  -42.7563400      -3.12513494      -20.0000000       584.668945     -0.354070961    
  -42.7509499      -1.56253600      -20.0000000       584.668945     -0.354070961    
  -41.2455711      -1.56282198      -20.0000000       584.668945     -0.354070961    
  -44.2515602       0.00000000      -20.0000000       521.009888     -0.198828802    
  -42.7457504       0.00000000      -20.0000000       521.009888     -0.198828802    
  -42.7509499      -1.56253600      -20.0000000       521.009888     -0.198828802    
  -44.2565308      -1.56226599      -20.0000000       521.009888     -0.198828802    
  -44.2515602       0.00000000      -20.0000000       487.939514      -2.95506734E-02
  -45.7582893       0.00000000      -20.0000000       487.939514      -2.95506734E-02
  -45.7509003       1.56100297      -20.0000000       487.939514      -2.95506734E-02
  -44.2452011       1.56199801      -20.0000000       487.939514      -2.95506734E-02
  -45.7509003       1.56100297      -20.0000000       482.479370      0.143712267    
  -47.2535896       1.55706894      -20.0000000       482.479370      0.143712267    
  -47.2370110       3.11982203      -20.0000000       482.479370      0.143712267    
  -45.7402802       3.12332392      -20.0000000       482.479370      0.143712267    
  -47.2370110       3.11982203      -20.0000000       504.909393      0.310954005    
  -48.7281189       3.10503101      -20.0000000       504.909393      0.310954005    
  -48.7241211       4.67746210      -20.0000000       504.909393      0.310954005    
  -47.2300911       4.68496799      -20.0000000       504.909393      0.310954005    
  -48.7241211       4.67746210      -20.0000000       565.877258      0.462595910    
  -50.2067184       4.64797401      -20.0000000       565.877258      0.462595910    
  -50.2455711       6.25000000      -20.0000000       565.877258      0.462595910    
  -48.7411499       6.25000000      -20.0000000       565.877258      0.462595910    
  -36.7432899      -6.25000000      -20.0000000       880.655029     -0.643315017    
  -38.2494698      -6.25000000      -20.0000000       880.655029     -0.643315017    
  -38.2446404      -4.68936491      -20.0000000       880.655029     -0.643315017    
  -36.7384796      -4.68897390      -20.0000000       880.655029     -0.643315017    
  -38.2446404      -4.68936491      -20.0000000       716.185547     -0.544689357    
  -39.7507591      -4.68851089      -20.0000000       716.185547     -0.544689357    
  -39.7453995      -3.12673903      -20.0000000       716.185547     -0.544689357    
  -38.2396507      -3.12933803      -20.0000000       716.185547     -0.544689357    
  -39.7453995      -3.12673903      -20.0000000       618.929871     -0.438572466    
  -41.2511406      -3.12541890      -20.0000000       618.929871     -0.438572466    
  -41.2455711      -1.56282198      -20.0000000       618.929871     -0.438572466    
  -39.7399902      -1.56351995      -20.0000000       618.929871     -0.438572466    
  -41.2455711      -1.56282198      -20.0000000       556.776001     -0.322085232    
  -42.7509499      -1.56253600      -20.0000000       556.776001     -0.322085232    
  -42.7457504       0.00000000      -20.0000000       556.776001     -0.322085232    
  -41.2401695       0.00000000      -20.0000000       556.776001     -0.322085232    
  -44.2452011       1.56199801      -20.0000000       521.334961     -0.199497372    
  -42.7402611       1.56238496      -20.0000000       521.334961     -0.199497372    
  -42.7457504       0.00000000      -20.0000000       521.334961     -0.199497372    
  -44.2515602       0.00000000      -20.0000000       521.334961     -0.199497372    
  -44.2452011       1.56199801      -20.0000000       508.897156      -7.63167739E-02
  -45.7509003       1.56100297      -20.0000000       508.897156      -7.63167739E-02
  -45.7402802       3.12332392      -20.0000000       508.897156      -7.63167739E-02
  -44.2380295       3.12447906      -20.0000000       508.897156      -7.63167739E-02
  -45.7402802       3.12332392      -20.0000000       519.421753       4.06546891E-02
  -47.2370110       3.11982203      -20.0000000       519.421753       4.06546891E-02
  -47.2300911       4.68496799      -20.0000000       519.421753       4.06546891E-02
  -45.7329903       4.68700409      -20.0000000       519.421753       4.06546891E-02
  -47.2300911       4.68496799      -20.0000000       562.831787      0.135875851    
  -48.7241211       4.67746210      -20.0000000       562.831787      0.135875851    
  -48.7411499       6.25000000      -20.0000000       562.831787      0.135875851    
  -47.2367287       6.25000000      -20.0000000       562.831787      0.135875851    
  -35.2371101      -6.25000000      -20.0000000       885.253967     -0.664442420    
  -36.7432899      -6.25000000      -20.0000000       885.253967     -0.664442420    
  -36.7384796      -4.68897390      -20.0000000       885.253967     -0.664442420    
  -35.2325211      -4.68835878      -20.0000000       885.253967     -0.664442420    
  -36.7384796      -4.68897390      -20.0000000       733.862610     -0.583368361    
  -38.2446404      -4.68936491      -20.0000000       733.862610     -0.583368361    
  -38.2396507      -3.12933803      -20.0000000       733.862610     -0.583368361    
  -36.7339096      -3.12783909      -20.0000000       733.862610     -0.583368361    
  -38.2396507      -3.12933803      -20.0000000       645.163879     -0.499395281    
  -39.7453995      -3.12673903      -20.0000000       645.163879     -0.499395281    
  -39.7399902      -1.56351995      -20.0000000       645.163879     -0.499395281    
  -38.2346497      -1.56438303      -20.0000000       645.163879     -0.499395281    
  -39.7399902      -1.56351995      -20.0000000       589.030396     -0.411405295    
  -41.2455711      -1.56282198      -20.0000000       589.030396     -0.411405295    
  -41.2401695       0.00000000      -20.0000000       589.030396     -0.411405295    