 VARIABLES="X" "Y" "Z" "abs(p) (Pa)" "angle(p) (rad)"
ZONE N=   3650,E =    3624, F=FEPOINT, ET=QUADRILATERAL
  -56.5164909      -2.47323704      -20.0000000       12540.7695      -1.56866336    
  -55.4176407      -3.26747894      -20.0000000       12540.7695      -1.56866336    
  -55.9264717      -4.64953518      -20.0000000       12540.7695      -1.56866336    
  -56.9148483      -3.51935697      -20.0000000       12540.7695      -1.56866336    
  -56.9148483      -3.51935697      -20.0000000       10210.6299      -1.56817520    
  -57.6058807      -2.18402195      -20.0000000       10210.6299      -1.56817520    
  -56.5164909      -2.47323704      -20.0000000       10210.6299      -1.56817520    
  -56.5164909      -2.47323704      -20.0000000       10210.6299      -1.56817520    
  -54.6953812      -5.51239681      -20.0000000       15601.0410      -1.56908107    
  -55.9264717      -4.64953518      -20.0000000       15601.0410      -1.56908107    
  -55.4176407      -3.26747894      -20.0000000       15601.0410      -1.56908107    
  -54.2450790      -3.94889998      -20.0000000       15601.0410      -1.56908107    
  -54.2450790      -3.94889998      -20.0000000       18208.8379      -1.56932521    
  -52.9834785      -4.46340179      -20.0000000       18208.8379      -1.56932521    
  -53.2955093      -6.05576801      -20.0000000       18208.8379      -1.56932521    
  -54.6953812      -5.51239681      -20.0000000       18208.8379      -1.56932521    
  -56.5223999      -1.11500299      -20.0000000       5583.85107      -1.56601167    
  -56.5164909      -2.47323704      -20.0000000       5583.85107      -1.56601167    
  -57.6058807      -2.18402195      -20.0000000       5583.85107      -1.56601167    
  -57.9577713     -0.724482894      -20.0000000       5583.85107      -1.56601167    
  -56.5164909      -2.47323704      -20.0000000       6671.26855      -1.56680024    
  -56.5223999      -1.11500299      -20.0000000       6671.26855      -1.56680024    
  -55.1657600      -1.76926601      -20.0000000       6671.26855      -1.56680024    
  -55.4176407      -3.26747894      -20.0000000       6671.26855      -1.56680024    
  -54.2450790      -3.94889998      -20.0000000       8560.29883      -1.56768072    
  -55.4176407      -3.26747894      -20.0000000       8560.29883      -1.56768072    
  -55.1657600      -1.76926601      -20.0000000       8560.29883      -1.56768072    
  -53.8819199      -2.32836604      -20.0000000       8560.29883      -1.56768072    
  -52.9834785      -4.46340179      -20.0000000       20033.6855      -1.56945753    
  -51.6155815      -4.69134283      -20.0000000       20033.6855      -1.56945753    
  -51.8049088      -6.24783087      -20.0000000       20033.6855      -1.56945753    
  -53.2955093      -6.05576801      -20.0000000       20033.6855      -1.56945753    
  -56.3964119      0.254809886      -20.0000000       622.145203      -1.52788436    
  -56.5223999      -1.11500299      -20.0000000       622.145203      -1.52788436    
  -57.9577713     -0.724482894      -20.0000000       622.145203      -1.52788436    
  -57.9511719      0.779103875      -20.0000000       622.145203      -1.52788436    
  -53.8819199      -2.32836604      -20.0000000       10415.0605      -1.56823492    
  -52.7235603      -2.92538095      -20.0000000       10415.0605      -1.56823492    
  -52.9834785      -4.46340179      -20.0000000       10415.0605      -1.56823492    
  -54.2450790      -3.94889998      -20.0000000       10415.0605      -1.56823492    
  -56.5223999      -1.11500299      -20.0000000       2189.22363      -1.55863476    
  -56.3964119      0.254809886      -20.0000000       2189.22363      -1.55863476    
  -54.8835487     -0.325594515      -20.0000000       2189.22363      -1.55863476    
  -55.1657600      -1.76926601      -20.0000000       2189.22363      -1.55863476    
  -50.2990494      -6.25000000      -20.0000000       20852.3926      -1.56950915    
  -51.8049088      -6.24783087      -20.0000000       20852.3926      -1.56950915    
  -51.6155815      -4.69134283      -20.0000000       20852.3926      -1.56950915    
  -50.1911316      -4.70199823      -20.0000000       20852.3926      -1.56950915    
  -53.8819199      -2.32836604      -20.0000000       3649.26367      -1.56350410    
  -55.1657600      -1.76926601      -20.0000000       3649.26367      -1.56350410    
  -54.8835487     -0.325594515      -20.0000000       3649.26367      -1.56350410    
  -53.3087082     -0.726661325      -20.0000000       3649.26367      -1.56350410    
  -52.7235603      -2.92538095      -20.0000000       11833.0957      -1.56854117    
  -51.4683685      -3.18431592      -20.0000000       11833.0957      -1.56854117    
  -51.6155815      -4.69134283      -20.0000000       11833.0957      -1.56854117    
  -52.9834785      -4.46340179      -20.0000000       11833.0957      -1.56854117    
  -56.1067696       1.60355306      -20.0000000       4207.73828       1.56445396    
  -56.3964119      0.254809886      -20.0000000       4207.73828       1.56445396    
  -57.9511719      0.779103875      -20.0000000       4207.73828       1.56445396    
  -57.5863686       2.23558092      -20.0000000       4207.73828       1.56445396    
  -56.3964119      0.254809886      -20.0000000       1900.41724       1.55678403    
  -56.1067696       1.60355306      -20.0000000       1900.41724       1.55678403    
  -54.6488190       1.11988902      -20.0000000       1900.41724       1.55678403    
  -54.8835487     -0.325594515      -20.0000000       1900.41724       1.55678403    
  -51.8859215      -1.67511594      -20.0000000       5331.54932      -1.56580663    
  -52.7235603      -2.92538095      -20.0000000       5331.54932      -1.56580663    
  -53.8819199      -2.32836604      -20.0000000       5331.54932      -1.56580663    
  -53.3087082     -0.726661325      -20.0000000       5331.54932      -1.56580663    
  -48.7928200      -6.25000000      -20.0000000       21062.7500      -1.56952071    
  -50.2990494      -6.25000000      -20.0000000       21062.7500      -1.56952071    
  -50.1911316      -4.70199823      -20.0000000       21062.7500      -1.56952071    
  -48.7387619      -4.69004917      -20.0000000       21062.7500      -1.56952071    
  -50.1911316      -4.70199823      -20.0000000       12317.7490      -1.56862891    
  -51.6155815      -4.69134283      -20.0000000       12317.7490      -1.56862891    
  -51.4683685      -3.18431592      -20.0000000       12317.7490      -1.56862891    
  -50.1564102      -3.12996602      -20.0000000       12317.7490      -1.56862891    
  -54.6488190       1.11988902      -20.0000000       660.489136       1.53051496    
  -53.2043991       1.01675200      -20.0000000       660.489136       1.53051496    
  -53.3087082     -0.726661325      -20.0000000       660.489136       1.53051496    
  -54.8835487     -0.325594515      -20.0000000       660.489136       1.53051496    
  -51.4683685      -3.18431592      -20.0000000       7507.54395      -1.56724882    
  -52.7235603      -2.92538095      -20.0000000       7507.54395      -1.56724882    
  -51.8859215      -1.67511594      -20.0000000       7507.54395      -1.56724882    
  -51.8859215      -1.67511594      -20.0000000       7507.54395      -1.56724882    
  -55.6295395       2.91055298      -20.0000000       8946.83594       1.56781065    
  -56.1067696       1.60355306      -20.0000000       8946.83594       1.56781065    
  -57.5863686       2.23558092      -20.0000000       8946.83594       1.56781065    
  -56.8836594       3.56473303      -20.0000000       8946.83594       1.56781065    
  -47.2866096      -6.25000000      -20.0000000       21055.5918      -1.56951988    
  -48.7928200      -6.25000000      -20.0000000       21055.5918      -1.56951988    
  -48.7387619      -4.69004917      -20.0000000       21055.5918      -1.56951988    
  -47.2626686      -4.68801212      -20.0000000       21055.5918      -1.56951988    
  -48.7387619      -4.69004917      -20.0000000       12291.4531      -1.56862247    
  -50.1911316      -4.70199823      -20.0000000       12291.4531      -1.56862247    
  -50.1564102      -3.12996602      -20.0000000       12291.4531      -1.56862247    
  -48.7254105      -3.12169194      -20.0000000       12291.4531      -1.56862247    
  -50.1564102      -3.12996602      -20.0000000       6825.44092      -1.56689441    
  -51.4683685      -3.18431592      -20.0000000       6825.44092      -1.56689441    
  -51.8859215      -1.67511594      -20.0000000       6825.44092      -1.56689441    
  -50.2854195      -1.59545600      -20.0000000       6825.44092      -1.56689441    
  -54.6488190       1.11988902      -20.0000000       6041.90430       1.56638706    
  -56.1067696       1.60355306      -20.0000000       6041.90430       1.56638706    
  -55.6295395       2.91055298      -20.0000000       6041.90430       1.56638706    
  -54.3531990       2.57653904      -20.0000000       6041.90430       1.56638706    
  -51.7686501     -0.191007897      -20.0000000       2427.89062      -1.55983865    
  -51.8859215      -1.67511594      -20.0000000       2427.89062      -1.55983865    
  -53.3087082     -0.726661325      -20.0000000       2427.89062      -1.55983865    
  -53.3087082     -0.726661325      -20.0000000       2427.89062      -1.55983865    
  -51.7686501     -0.191007897      -20.0000000       874.437561       1.54038644    
  -53.3087082     -0.726661325      -20.0000000       874.437561       1.54038644    
  -53.2043991       1.01675200      -20.0000000       874.437561       1.54038644    
  -51.7500000       1.29565406      -20.0000000       874.437561       1.54038644    
  -53.0367393       2.70281792      -20.0000000       5193.20654       1.56567347    
  -53.2043991       1.01675200      -20.0000000       5193.20654       1.56567347    
  -54.6488190       1.11988902      -20.0000000       5193.20654       1.56567347    
  -54.3531990       2.57653904      -20.0000000       5193.20654       1.56567347    
  -45.7804108      -6.25000000      -20.0000000       20847.2637      -1.56950557    
  -47.2866096      -6.25000000      -20.0000000       20847.2637      -1.56950557    
  -47.2626686      -4.68801212      -20.0000000       20847.2637      -1.56950557    
  -45.7679100      -4.68779421      -20.0000000       20847.2637      -1.56950557    
  -47.2626686      -4.68801212      -20.0000000       12282.1074      -1.56861830    
  -48.7387619      -4.69004917      -20.0000000       12282.1074      -1.56861830    
  -48.7254105      -3.12169194      -20.0000000       12282.1074      -1.56861830    
  -47.2550507      -3.12222195      -20.0000000       12282.1074      -1.56861830    
  -54.5736809       4.04919481      -20.0000000       13415.7490       1.56880426    
  -55.6295395       2.91055298      -20.0000000       13415.7490       1.56880426    
  -56.8836594       3.56473303      -20.0000000       13415.7490       1.56880426    
  -55.8850899       4.68635893      -20.0000000       13415.7490       1.56880426    
  -48.7254105      -3.12169194      -20.0000000       6775.61475      -1.56686425    
  -50.1564102      -3.12996602      -20.0000000       6775.61475      -1.56686425    
  -50.2854195      -1.59545600      -20.0000000       6775.61475      -1.56686425    
  -48.7658615      -1.56390297      -20.0000000       6775.61475      -1.56686425    
  -50.2854195      -1.59545600      -20.0000000       2490.47119      -1.56011868    
  -51.8859215      -1.67511594      -20.0000000       2490.47119      -1.56011868    
  -51.7686501     -0.191007897      -20.0000000       2490.47119      -1.56011868    
  -50.2816200      -7.23225027E-02  -20.0000000       2490.47119      -1.56011868    
  -55.6295395       2.91055298      -20.0000000       9801.23438       1.56807649    
  -54.5736809       4.04919481      -20.0000000       9801.23438       1.56807649    
  -54.3531990       2.57653904      -20.0000000       9801.23438       1.56807649    
  -54.3531990       2.57653904      -20.0000000       9801.23438       1.56807649    
  -51.6464691       2.90894699      -20.0000000       5537.56299       1.56599116    
  -51.7500000       1.29565406      -20.0000000       5537.56299       1.56599116    
  -53.2043991       1.01675200      -20.0000000       5537.56299       1.56599116    
  -53.0367393       2.70281792      -20.0000000       5537.56299       1.56599116    
  -44.2742119      -6.25000000      -20.0000000       20461.0176      -1.56947982    
  -45.7804108      -6.25000000      -20.0000000       20461.0176      -1.56947982    
  -45.7679100      -4.68779421      -20.0000000       20461.0176      -1.56947982    
  -44.2670212      -4.68766403      -20.0000000       20461.0176      -1.56947982    
  -45.7679100      -4.68779421      -20.0000000       12197.2188      -1.56860268    
  -47.2626686      -4.68801212      -20.0000000       12197.2188      -1.56860268    
  -47.2550507      -3.12222195      -20.0000000       12197.2188      -1.56860268    
  -45.7611885      -3.12411094      -20.0000000       12197.2188      -1.56860268    
  -51.7500000       1.29565406      -20.0000000       1694.74561       1.55510509    
  -50.2459984       1.47492099      -20.0000000       1694.74561       1.55510509    
  -50.2816200      -7.23225027E-02  -20.0000000       1694.74561       1.55510509    
  -51.7686501     -0.191007897      -20.0000000       1694.74561       1.55510509    
  -47.2550507      -3.12222195      -20.0000000       6761.40576      -1.56685174    
  -48.7254105      -3.12169194      -20.0000000       6761.40576      -1.56685174    
  -48.7658615      -1.56390297      -20.0000000       6761.40576      -1.56685174    
  -47.2643318      -1.55986798      -20.0000000       6761.40576      -1.56685174    
  -48.7658615      -1.56390297      -20.0000000       2274.33276      -1.55909240    
  -50.2854195      -1.59545600      -20.0000000       2274.33276      -1.55909240    
  -50.2816200      -7.23225027E-02  -20.0000000       2274.33276      -1.55909240    
  -48.7753716      -1.42937005E-02  -20.0000000       2274.33276      -1.55909240    
  -54.5736809       4.04919481      -20.0000000       10435.9424       1.56824172    
  -53.0954399       4.36336088      -20.0000000       10435.9424       1.56824172    
  -53.0367393       2.70281792      -20.0000000       10435.9424       1.56824172    
  -54.3531990       2.57653904      -20.0000000       10435.9424       1.56824172    
  -54.6465797       5.53822613      -20.0000000       17850.0195       1.56929672    
  -54.5736809       4.04919481      -20.0000000       17850.0195       1.56929672    
  -55.8850899       4.68635893      -20.0000000       17850.0195       1.56929672    
  -55.8850899       4.68635893      -20.0000000       17850.0195       1.56929672    
  -44.2670212      -4.68766403      -20.0000000       19933.8789      -1.56944275    
  -42.7620697      -4.68767691      -20.0000000       19933.8789      -1.56944275    
  -42.7680206      -6.25000000      -20.0000000       19933.8789      -1.56944275    
  -44.2742119      -6.25000000      -20.0000000       19933.8789      -1.56944275    
  -44.2670212      -4.68766403      -20.0000000       12014.0449      -1.56856585    
  -45.7679100      -4.68779421      -20.0000000       12014.0449      -1.56856585    
  -45.7611885      -3.12411094      -20.0000000       12014.0449      -1.56856585    
  -44.2611694      -3.12488103      -20.0000000       12014.0449      -1.56856585    
  -45.7611885      -3.12411094      -20.0000000       6724.94043      -1.56682813    
  -47.2550507      -3.12222195      -20.0000000       6724.94043      -1.56682813    
  -47.2643318      -1.55986798      -20.0000000       6724.94043      -1.56682813    
  -45.7603798      -1.56126106      -20.0000000       6724.94043      -1.56682813    
  -50.2459984       1.47492099      -20.0000000       6164.66992       1.56647897    
  -51.7500000       1.29565406      -20.0000000       6164.66992       1.56647897    
  -51.6464691       2.90894699      -20.0000000       6164.66992       1.56647897    
  -50.2011604       3.04989505      -20.0000000       6164.66992       1.56647897    
  -54.6465797       5.53822613      -20.0000000       18058.4160       1.56931412    
  -53.2416306       6.06926107      -20.0000000       18058.4160       1.56931412    
  -53.0954399       4.36336088      -20.0000000       18058.4160       1.56931412    
  -54.5736809       4.04919481      -20.0000000       18058.4160       1.56931412    
  -47.2643318      -1.55986798      -20.0000000       2196.47876      -1.55867243    
  -48.7658615      -1.56390297      -20.0000000       2196.47876      -1.55867243    
  -48.7753716      -1.42937005E-02  -20.0000000       2196.47876      -1.55867243    
  -47.2657204       0.00000000      -20.0000000       2196.47876      -1.55867243    
  -48.7753716      -1.42937005E-02  -20.0000000       1988.97156       1.55741549    
  -50.2816200      -7.23225027E-02  -20.0000000       1988.97156       1.55741549    
  -50.2459984       1.47492099      -20.0000000       1988.97156       1.55741549    
  -48.7560692       1.53868604      -20.0000000       1988.97156       1.55741549    
  -51.6464691       2.90894699      -20.0000000       11039.2002       1.56838059    
  -53.0367393       2.70281792      -20.0000000       11039.2002       1.56838059    
  -53.0954399       4.36336088      -20.0000000       11039.2002       1.56838059    
  -51.6648903       4.56408405      -20.0000000       11039.2002       1.56838059    
  -41.2618294      -6.25000000      -20.0000000       19309.1387      -1.56939757    
  -42.7680206      -6.25000000      -20.0000000       19309.1387      -1.56939757    
  -42.7620697      -4.68767691      -20.0000000       19309.1387      -1.56939757    
  -41.2566490      -4.68782711      -20.0000000       19309.1387      -1.56939757    
  -44.2611694      -3.12488103      -20.0000000       11743.7949      -1.56851208    
  -42.7563400      -3.12513494      -20.0000000       11743.7949      -1.56851208    
  -42.7620697      -4.68767691      -20.0000000       11743.7949      -1.56851208    
  -44.2670212      -4.68766403      -20.0000000       11743.7949      -1.56851208    
  -44.2611694      -3.12488103      -20.0000000       6637.61621      -1.56677222    
  -45.7611885      -3.12411094      -20.0000000       6637.61621      -1.56677222    
  -45.7603798      -1.56126106      -20.0000000       6637.61621      -1.56677222    
  -44.2565308      -1.56226599      -20.0000000       6637.61621      -1.56677222    
  -45.7603798      -1.56126106      -20.0000000       2173.80688      -1.55853629    
  -47.2643318      -1.55986798      -20.0000000       2173.80688      -1.55853629    
  -47.2657204       0.00000000      -20.0000000       2173.80688      -1.55853629    
  -45.7582893       0.00000000      -20.0000000       2173.80688      -1.55853629    
  -47.2657204       0.00000000      -20.0000000       2099.25366       1.55811703    
  -48.7753716      -1.42937005E-02  -20.0000000       2099.25366       1.55811703    
  -48.7560692       1.53868604      -20.0000000       2099.25366       1.55811703    
  -47.2535896       1.55706894      -20.0000000       2099.25366       1.55811703    
  -48.7560692       1.53868604      -20.0000000       6546.70459       1.56672788    
  -50.2459984       1.47492099      -20.0000000       6546.70459       1.56672788    
  -50.2011604       3.04989505      -20.0000000       6546.70459       1.56672788    
  -48.7281189       3.10503101      -20.0000000       6546.70459       1.56672788    
  -50.2011604       3.04989505      -20.0000000       11681.4600       1.56851256    
  -51.6464691       2.90894699      -20.0000000       11681.4600       1.56851256    
  -51.6648903       4.56408405      -20.0000000       11681.4600       1.56851256    
  -50.2067184       4.64797401      -20.0000000       11681.4600       1.56851256    
  -51.6648903       4.56408405      -20.0000000       19579.2715       1.56942844    
  -53.0954399       4.36336088      -20.0000000       19579.2715       1.56942844    
  -53.2416306       6.06926107      -20.0000000       19579.2715       1.56942844    
  -51.7500000       6.25000000      -20.0000000       19579.2715       1.56942844    
  -39.7556496      -6.25000000      -20.0000000       18617.1523      -1.56934416    
  -41.2618294      -6.25000000      -20.0000000       18617.1523      -1.56934416    
  -41.2566490      -4.68782711      -20.0000000       18617.1523      -1.56934416    
  -39.7507591      -4.68851089      -20.0000000       18617.1523      -1.56934416    
  -41.2566490      -4.68782711      -20.0000000       11407.4307      -1.56844258    
  -42.7620697      -4.68767691      -20.0000000       11407.4307      -1.56844258    
  -42.7563400      -3.12513494      -20.0000000       11407.4307      -1.56844258    
  -41.2511406      -3.12541890      -20.0000000       11407.4307      -1.56844258    
  -44.2565308      -1.56226599      -20.0000000       6500.16309      -1.56668258    
  -42.7509499      -1.56253600      -20.0000000       6500.16309      -1.56668258    
  -42.7563400      -3.12513494      -20.0000000       6500.16309      -1.56668258    
  -44.2611694      -3.12488103      -20.0000000       6500.16309      -1.56668258    
  -44.2565308      -1.56226599      -20.0000000       2148.34961      -1.55837643    
  -45.7603798      -1.56126106      -20.0000000       2148.34961      -1.55837643    
  -45.7582893       0.00000000      -20.0000000       2148.34961      -1.55837643    
  -44.2515602       0.00000000      -20.0000000       2148.34961      -1.55837643    
  -45.7582893       0.00000000      -20.0000000       2105.46704       1.55813777    
  -47.2657204       0.00000000      -20.0000000       2105.46704       1.55813777    
  -47.2535896       1.55706894      -20.0000000       2105.46704       1.55813777    
  -45.7509003       1.56100297      -20.0000000       2105.46704       1.55813777    
  -47.2535896       1.55706894      -20.0000000       6666.96777       1.56679964    
  -48.7560692       1.53868604      -20.0000000       6666.96777       1.56679964    
  -48.7281189       3.10503101      -20.0000000       6666.96777       1.56679964    
  -47.2370110       3.11982203      -20.0000000       6666.96777       1.56679964    
  -48.7281189       3.10503101      -20.0000000       12067.5879       1.56858408    
  -50.2011604       3.04989505      -20.0000000       12067.5879       1.56858408    
  -50.2067184       4.64797401      -20.0000000       12067.5879       1.56858408    
  -48.7241211       4.67746210      -20.0000000       12067.5879       1.56858408    
  -50.2067184       4.64797401      -20.0000000       20472.7695       1.56948721    
  -51.6648903       4.56408405      -20.0000000       20472.7695       1.56948721    
  -51.7500000       6.25000000      -20.0000000       20472.7695       1.56948721    
  -50.2455711       6.25000000      -20.0000000       20472.7695       1.56948721    
  -38.2494698      -6.25000000      -20.0000000       17883.9004      -1.56928241    
  -39.7556496      -6.25000000      -20.0000000       17883.9004      -1.56928241    
  -39.7507591      -4.68851089      -20.0000000       17883.9004      -1.56928241    
  -38.2446404      -4.68936491      -20.0000000       17883.9004      -1.56928241    
  -39.7507591      -4.68851089      -20.0000000       11026.3994      -1.56835830    
  -41.2566490      -4.68782711      -20.0000000       11026.3994      -1.56835830    
  -41.2511406      -3.12541890      -20.0000000       11026.3994      -1.56835830    
  -39.7453995      -3.12673903      -20.0000000       11026.3994      -1.56835830    
  -41.2511406      -3.12541890      -20.0000000       6325.32080      -1.56656373    
  -42.7563400      -3.12513494      -20.0000000       6325.32080      -1.56656373    
  -42.7509499      -1.56253600      -20.0000000       6325.32080      -1.56656373    
  -41.2455711      -1.56282198      -20.0000000       6325.32080      -1.56656373    
  -44.2515602       0.00000000      -20.0000000       2106.85840      -1.55811679    
  -42.7457504       0.00000000      -20.0000000       2106.85840      -1.55811679    
  -42.7509499      -1.56253600      -20.0000000       2106.85840      -1.55811679    
  -44.2565308      -1.56226599      -20.0000000       2106.85840      -1.55811679    
  -44.2515602       0.00000000      -20.0000000       2077.09009       1.55795658    
  -45.7582893       0.00000000      -20.0000000       2077.09009       1.55795658    
  -45.7509003       1.56100297      -20.0000000       2077.09009       1.55795658    
  -44.2452011       1.56199801      -20.0000000       2077.09009       1.55795658    
  -45.7509003       1.56100297      -20.0000000       6650.78076       1.56678581    
  -47.2535896       1.55706894      -20.0000000       6650.78076       1.56678581    
  -47.2370110       3.11982203      -20.0000000       6650.78076       1.56678581    
  -45.7402802       3.12332392      -20.0000000       6650.78076       1.56678581    
  -47.2370110       3.11982203      -20.0000000       12183.9766       1.56860304    
  -48.7281189       3.10503101      -20.0000000       12183.9766       1.56860304    
  -48.7241211       4.67746210      -20.0000000       12183.9766       1.56860304    
  -47.2300911       4.68496799      -20.0000000       12183.9766       1.56860304    
  -48.7241211       4.67746210      -20.0000000       20880.3164       1.56951129    
  -50.2067184       4.64797401      -20.0000000       20880.3164       1.56951129    
  -50.2455711       6.25000000      -20.0000000       20880.3164       1.56951129    
  -48.7411499       6.25000000      -20.0000000       20880.3164       1.56951129    
  -36.7432899      -6.25000000      -20.0000000       17122.9746      -1.56921375    
  -38.2494698      -6.25000000      -20.0000000       17122.9746      -1.56921375    
  -38.2446404      -4.68936491      -20.0000000       17122.9746      -1.56921375    
  -36.7384796      -4.68897390      -20.0000000       17122.9746      -1.56921375    
  -38.2446404      -4.68936491      -20.0000000       10616.3711      -1.56826186    
  -39.7507591      -4.68851089      -20.0000000       10616.3711      -1.56826186    
  -39.7453995      -3.12673903      -20.0000000       10616.3711      -1.56826186    
  -38.2396507      -3.12933803      -20.0000000       10616.3711      -1.56826186    
  -39.7453995      -3.12673903      -20.0000000       6123.13184      -1.56642091    
  -41.2511406      -3.12541890      -20.0000000       6123.13184      -1.56642091    
  -41.2455711      -1.56282198      -20.0000000       6123.13184      -1.56642091    
  -39.7399902      -1.56351995      -20.0000000       6123.13184      -1.56642091    
  -41.2455711      -1.56282198      -20.0000000       2052.74902      -1.55777729    
  -42.7509499      -1.56253600      -20.0000000       2052.74902      -1.55777729    
  -42.7457504       0.00000000      -20.0000000       2052.74902      -1.55777729    
  -41.2401695       0.00000000      -20.0000000       2052.74902      -1.55777729    
  -44.2452011       1.56199801      -20.0000000       2029.06165       1.55763519    
  -42.7402611       1.56238496      -20.0000000       2029.06165       1.55763519    
  -42.7457504       0.00000000      -20.0000000       2029.06165       1.55763519    
  -44.2515602       0.00000000      -20.0000000       2029.06165       1.55763519    
  -44.2452011       1.56199801      -20.0000000       6558.30469       1.56672454    
  -45.7509003       1.56100297      -20.0000000       6558.30469       1.56672454    
  -45.7402802       3.12332392      -20.0000000       6558.30469       1.56672454    
  -44.2380295       3.12447906      -20.0000000       6558.30469       1.56672454    
  -45.7402802       3.12332392      -20.0000000       12116.5049       1.56858814    
  -47.2370110       3.11982203      -20.0000000       12116.5049       1.56858814    
  -47.2300911       4.68496799      -20.0000000       12116.5049       1.56858814    
  -45.7329903       4.68700409      -20.0000000       12116.5049       1.56858814    
  -47.2300911       4.68496799      -20.0000000       20950.3184       1.56951427    
  -48.7241211       4.67746210      -20.0000000       20950.3184       1.56951427    
  -48.7411499       6.25000000      -20.0000000       20950.3184       1.56951427    
  -47.2367287       6.25000000      -20.0000000       20950.3184       1.56951427    
  -35.2371101      -6.25000000      -20.0000000       16346.8984      -1.56913710    
  -36.7432899      -6.25000000      -20.0000000       16346.8984      -1.56913710    
  -36.7384796      -4.68897390      -20.0000000       16346.8984      -1.56913710    
  -35.2325211      -4.68835878      -20.0000000       16346.8984      -1.56913710    
  -36.7384796      -4.68897390      -20.0000000       10179.7900      -1.56815088    
  -38.2446404      -4.68936491      -20.0000000       10179.7900      -1.56815088    
  -38.2396507      -3.12933803      -20.0000000       10179.7900      -1.56815088    
  -36.7339096      -3.12783909      -20.0000000       10179.7900      -1.56815088    
  -38.2396507      -3.12933803      -20.0000000       5903.56250      -1.56625402    
  -39.7453995      -3.12673903      -20.0000000       5903.56250      -1.56625402    
  -39.7399902      -1.56351995      -20.0000000       5903.56250      -1.56625402    
  -38.2346497      -1.56438303      -20.0000000       5903.56250      -1.56625402    
  -39.7399902      -1.56351995      -20.0000000       1990.35693      -1.55735111    
  -41.2455711      -1.56282198      -20.0000000       1990.35693      -1.55735111    
  -41.2401695       0.00000000      -20.0000000       1990.35693      -1.55735111    