 VARIABLES="X" "Y" "Z" "abs(p) (Pa)" "angle(p) (rad)"
ZONE N=   3650,E =    3624, F=FEPOINT, ET=QUADRILATERAL
  -56.5164909      -2.47323704      -20.0000000       178.269730      0.876963139    
  -55.4176407      -3.26747894      -20.0000000       178.269730      0.876963139    
  -55.9264717      -4.64953518      -20.0000000       178.269730      0.876963139    
  -56.9148483      -3.51935697      -20.0000000       178.269730      0.876963139    
  -56.9148483      -3.51935697      -20.0000000       192.531754      0.935037374    
  -57.6058807      -2.18402195      -20.0000000       192.531754      0.935037374    
  -56.5164909      -2.47323704      -20.0000000       192.531754      0.935037374    
  -56.5164909      -2.47323704      -20.0000000       192.531754      0.935037374    
  -54.6953812      -5.51239681      -20.0000000       156.309464      0.757182360    
  -55.9264717      -4.64953518      -20.0000000       156.309464      0.757182360    
  -55.4176407      -3.26747894      -20.0000000       156.309464      0.757182360    
  -54.2450790      -3.94889998      -20.0000000       156.309464      0.757182360    
  -54.2450790      -3.94889998      -20.0000000       131.760452      0.575314581    
  -52.9834785      -4.46340179      -20.0000000       131.760452      0.575314581    
  -53.2955093      -6.05576801      -20.0000000       131.760452      0.575314581    
  -54.6953812      -5.51239681      -20.0000000       131.760452      0.575314581    
  -56.5223999      -1.11500299      -20.0000000       204.443878      0.963367760    
  -56.5164909      -2.47323704      -20.0000000       204.443878      0.963367760    
  -57.6058807      -2.18402195      -20.0000000       204.443878      0.963367760    
  -57.9577713     -0.724482894      -20.0000000       204.443878      0.963367760    
  -56.5164909      -2.47323704      -20.0000000       195.269089      0.864951074    
  -56.5223999      -1.11500299      -20.0000000       195.269089      0.864951074    
  -55.1657600      -1.76926601      -20.0000000       195.269089      0.864951074    
  -55.4176407      -3.26747894      -20.0000000       195.269089      0.864951074    
  -54.2450790      -3.94889998      -20.0000000       182.283035      0.708766460    
  -55.4176407      -3.26747894      -20.0000000       182.283035      0.708766460    
  -55.1657600      -1.76926601      -20.0000000       182.283035      0.708766460    
  -53.8819199      -2.32836604      -20.0000000       182.283035      0.708766460    
  -52.9834785      -4.46340179      -20.0000000       109.869698      0.301185191    
  -51.6155815      -4.69134283      -20.0000000       109.869698      0.301185191    
  -51.8049088      -6.24783087      -20.0000000       109.869698      0.301185191    
  -53.2955093      -6.05576801      -20.0000000       109.869698      0.301185191    
  -56.3964119      0.254809886      -20.0000000       210.263870      0.972915411    
  -56.5223999      -1.11500299      -20.0000000       210.263870      0.972915411    
  -57.9577713     -0.724482894      -20.0000000       210.263870      0.972915411    
  -57.9511719      0.779103875      -20.0000000       210.263870      0.972915411    
  -53.8819199      -2.32836604      -20.0000000       167.045044      0.517664611    
  -52.7235603      -2.92538095      -20.0000000       167.045044      0.517664611    
  -52.9834785      -4.46340179      -20.0000000       167.045044      0.517664611    
  -54.2450790      -3.94889998      -20.0000000       167.045044      0.517664611    
  -56.5223999      -1.11500299      -20.0000000       202.899414      0.848815024    
  -56.3964119      0.254809886      -20.0000000       202.899414      0.848815024    
  -54.8835487     -0.325594515      -20.0000000       202.899414      0.848815024    
  -55.1657600      -1.76926601      -20.0000000       202.899414      0.848815024    
  -50.2990494      -6.25000000      -20.0000000       97.9477158      -8.69159922E-02
  -51.8049088      -6.24783087      -20.0000000       97.9477158      -8.69159922E-02
  -51.6155815      -4.69134283      -20.0000000       97.9477158      -8.69159922E-02
  -50.1911316      -4.70199823      -20.0000000       97.9477158      -8.69159922E-02
  -53.8819199      -2.32836604      -20.0000000       193.254700      0.650831223    
  -55.1657600      -1.76926601      -20.0000000       193.254700      0.650831223    
  -54.8835487     -0.325594515      -20.0000000       193.254700      0.650831223    
  -53.3087082     -0.726661325      -20.0000000       193.254700      0.650831223    
  -52.7235603      -2.92538095      -20.0000000       152.746460      0.274839431    
  -51.4683685      -3.18431592      -20.0000000       152.746460      0.274839431    
  -51.6155815      -4.69134283      -20.0000000       152.746460      0.274839431    
  -52.9834785      -4.46340179      -20.0000000       152.746460      0.274839431    
  -56.1067696       1.60355306      -20.0000000       206.689178      0.957473278    
  -56.3964119      0.254809886      -20.0000000       206.689178      0.957473278    
  -57.9511719      0.779103875      -20.0000000       206.689178      0.957473278    
  -57.5863686       2.23558092      -20.0000000       206.689178      0.957473278    
  -56.3964119      0.254809886      -20.0000000       202.133560      0.820960343    
  -56.1067696       1.60355306      -20.0000000       202.133560      0.820960343    
  -54.6488190       1.11988902      -20.0000000       202.133560      0.820960343    
  -54.8835487     -0.325594515      -20.0000000       202.133560      0.820960343    
  -51.8859215      -1.67511594      -20.0000000       181.793121      0.425256878    
  -52.7235603      -2.92538095      -20.0000000       181.793121      0.425256878    
  -53.8819199      -2.32836604      -20.0000000       181.793121      0.425256878    
  -53.3087082     -0.726661325      -20.0000000       181.793121      0.425256878    
  -48.7928200      -6.25000000      -20.0000000       99.2112732     -0.534803867    
  -50.2990494      -6.25000000      -20.0000000       99.2112732     -0.534803867    
  -50.1911316      -4.70199823      -20.0000000       99.2112732     -0.534803867    
  -48.7387619      -4.69004917      -20.0000000       99.2112732     -0.534803867    
  -50.1911316      -4.70199823      -20.0000000       145.157852      -2.48792879E-02
  -51.6155815      -4.69134283      -20.0000000       145.157852      -2.48792879E-02
  -51.4683685      -3.18431592      -20.0000000       145.157852      -2.48792879E-02
  -50.1564102      -3.12996602      -20.0000000       145.157852      -2.48792879E-02
  -54.6488190       1.11988902      -20.0000000       194.603271      0.603956282    
  -53.2043991       1.01675200      -20.0000000       194.603271      0.603956282    
  -53.3087082     -0.726661325      -20.0000000       194.603271      0.603956282    
  -54.8835487     -0.325594515      -20.0000000       194.603271      0.603956282    
  -51.4683685      -3.18431592      -20.0000000       170.389099      0.246769279    
  -52.7235603      -2.92538095      -20.0000000       170.389099      0.246769279    
  -51.8859215      -1.67511594      -20.0000000       170.389099      0.246769279    
  -51.8859215      -1.67511594      -20.0000000       170.389099      0.246769279    
  -55.6295395       2.91055298      -20.0000000       193.894196      0.915061593    
  -56.1067696       1.60355306      -20.0000000       193.894196      0.915061593    
  -57.5863686       2.23558092      -20.0000000       193.894196      0.915061593    
  -56.8836594       3.56473303      -20.0000000       193.894196      0.915061593    
  -47.2866096      -6.25000000      -20.0000000       111.918182     -0.946512818    
  -48.7928200      -6.25000000      -20.0000000       111.918182     -0.946512818    
  -48.7387619      -4.69004917      -20.0000000       111.918182     -0.946512818    
  -47.2626686      -4.68801212      -20.0000000       111.918182     -0.946512818    
  -48.7387619      -4.69004917      -20.0000000       145.366043     -0.357585818    
  -50.1911316      -4.70199823      -20.0000000       145.366043     -0.357585818    
  -50.1564102      -3.12996602      -20.0000000       145.366043     -0.357585818    
  -48.7254105      -3.12169194      -20.0000000       145.366043     -0.357585818    
  -50.1564102      -3.12996602      -20.0000000       168.985153       2.51655634E-02
  -51.4683685      -3.18431592      -20.0000000       168.985153       2.51655634E-02
  -51.8859215      -1.67511594      -20.0000000       168.985153       2.51655634E-02
  -50.2854195      -1.59545600      -20.0000000       168.985153       2.51655634E-02
  -54.6488190       1.11988902      -20.0000000       193.206802      0.779560030    
  -56.1067696       1.60355306      -20.0000000       193.206802      0.779560030    
  -55.6295395       2.91055298      -20.0000000       193.206802      0.779560030    
  -54.3531990       2.57653904      -20.0000000       193.206802      0.779560030    
  -51.7686501     -0.191007897      -20.0000000       184.237656      0.308534026    
  -51.8859215      -1.67511594      -20.0000000       184.237656      0.308534026    
  -53.3087082     -0.726661325      -20.0000000       184.237656      0.308534026    
  -53.3087082     -0.726661325      -20.0000000       184.237656      0.308534026    
  -51.7686501     -0.191007897      -20.0000000       186.412827      0.348377764    
  -53.3087082     -0.726661325      -20.0000000       186.412827      0.348377764    
  -53.2043991       1.01675200      -20.0000000       186.412827      0.348377764    
  -51.7500000       1.29565406      -20.0000000       186.412827      0.348377764    
  -53.0367393       2.70281792      -20.0000000       187.044739      0.573036075    
  -53.2043991       1.01675200      -20.0000000       187.044739      0.573036075    
  -54.6488190       1.11988902      -20.0000000       187.044739      0.573036075    
  -54.3531990       2.57653904      -20.0000000       187.044739      0.573036075    
  -45.7804108      -6.25000000      -20.0000000       131.803925      -1.27283537    
  -47.2866096      -6.25000000      -20.0000000       131.803925      -1.27283537    
  -47.2626686      -4.68801212      -20.0000000       131.803925      -1.27283537    
  -45.7679100      -4.68779421      -20.0000000       131.803925      -1.27283537    
  -47.2626686      -4.68801212      -20.0000000       151.974854     -0.699745834    
  -48.7387619      -4.69004917      -20.0000000       151.974854     -0.699745834    
  -48.7254105      -3.12169194      -20.0000000       151.974854     -0.699745834    
  -47.2550507      -3.12222195      -20.0000000       151.974854     -0.699745834    
  -54.5736809       4.04919481      -20.0000000       171.699921      0.834000468    
  -55.6295395       2.91055298      -20.0000000       171.699921      0.834000468    
  -56.8836594       3.56473303      -20.0000000       171.699921      0.834000468    
  -55.8850899       4.68635893      -20.0000000       171.699921      0.834000468    
  -48.7254105      -3.12169194      -20.0000000       167.958633     -0.295725942    
  -50.1564102      -3.12996602      -20.0000000       167.958633     -0.295725942    
  -50.2854195      -1.59545600      -20.0000000       167.958633     -0.295725942    
  -48.7658615      -1.56390297      -20.0000000       167.958633     -0.295725942    
  -50.2854195      -1.59545600      -20.0000000       179.295883       5.53736500E-02
  -51.8859215      -1.67511594      -20.0000000       179.295883       5.53736500E-02
  -51.7686501     -0.191007897      -20.0000000       179.295883       5.53736500E-02
  -50.2816200      -7.23225027E-02  -20.0000000       179.295883       5.53736500E-02
  -55.6295395       2.91055298      -20.0000000       178.640671      0.736054599    
  -54.5736809       4.04919481      -20.0000000       178.640671      0.736054599    
  -54.3531990       2.57653904      -20.0000000       178.640671      0.736054599    
  -54.3531990       2.57653904      -20.0000000       178.640671      0.736054599    
  -51.6464691       2.90894699      -20.0000000       178.232239      0.326350719    
  -51.7500000       1.29565406      -20.0000000       178.232239      0.326350719    
  -53.2043991       1.01675200      -20.0000000       178.232239      0.326350719    
  -53.0367393       2.70281792      -20.0000000       178.232239      0.326350719    
  -44.2742119      -6.25000000      -20.0000000       153.562195      -1.52332914    
  -45.7804108      -6.25000000      -20.0000000       153.562195      -1.52332914    
  -45.7679100      -4.68779421      -20.0000000       153.562195      -1.52332914    
  -44.2670212      -4.68766403      -20.0000000       153.562195      -1.52332914    
  -45.7679100      -4.68779421      -20.0000000       164.223221      -1.01656711    
  -47.2626686      -4.68801212      -20.0000000       164.223221      -1.01656711    
  -47.2550507      -3.12222195      -20.0000000       164.223221      -1.01656711    
  -45.7611885      -3.12411094      -20.0000000       164.223221      -1.01656711    
  -51.7500000       1.29565406      -20.0000000       179.843277       4.78620566E-02
  -50.2459984       1.47492099      -20.0000000       179.843277       4.78620566E-02
  -50.2816200      -7.23225027E-02  -20.0000000       179.843277       4.78620566E-02
  -51.7686501     -0.191007897      -20.0000000       179.843277       4.78620566E-02
  -47.2550507      -3.12222195      -20.0000000       172.432297     -0.620178044    
  -48.7254105      -3.12169194      -20.0000000       172.432297     -0.620178044    
  -48.7658615      -1.56390297      -20.0000000       172.432297     -0.620178044    
  -47.2643318      -1.55986798      -20.0000000       172.432297     -0.620178044    
  -48.7658615      -1.56390297      -20.0000000       177.758362     -0.267015636    
  -50.2854195      -1.59545600      -20.0000000       177.758362     -0.267015636    
  -50.2816200      -7.23225027E-02  -20.0000000       177.758362     -0.267015636    
  -48.7753716      -1.42937005E-02  -20.0000000       177.758362     -0.267015636    
  -54.5736809       4.04919481      -20.0000000       168.675690      0.567467093    
  -53.0954399       4.36336088      -20.0000000       168.675690      0.567467093    
  -53.0367393       2.70281792      -20.0000000       168.675690      0.567467093    
  -54.3531990       2.57653904      -20.0000000       168.675690      0.567467093    
  -54.6465797       5.53822613      -20.0000000       145.184204      0.749497116    
  -54.5736809       4.04919481      -20.0000000       145.184204      0.749497116    
  -55.8850899       4.68635893      -20.0000000       145.184204      0.749497116    
  -55.8850899       4.68635893      -20.0000000       145.184204      0.749497116    
  -44.2670212      -4.68766403      -20.0000000       172.694641      -1.72378373    
  -42.7620697      -4.68767691      -20.0000000       172.694641      -1.72378373    
  -42.7680206      -6.25000000      -20.0000000       172.694641      -1.72378373    
  -44.2742119      -6.25000000      -20.0000000       172.694641      -1.72378373    
  -44.2670212      -4.68766403      -20.0000000       179.214569      -1.29467010    
  -45.7679100      -4.68779421      -20.0000000       179.214569      -1.29467010    
  -45.7611885      -3.12411094      -20.0000000       179.214569      -1.29467010    
  -44.2611694      -3.12488103      -20.0000000       179.214569      -1.29467010    
  -45.7611885      -3.12411094      -20.0000000       181.594223     -0.928654253    
  -47.2550507      -3.12222195      -20.0000000       181.594223     -0.928654253    
  -47.2643318      -1.55986798      -20.0000000       181.594223     -0.928654253    
  -45.7603798      -1.56126106      -20.0000000       181.594223     -0.928654253    
  -50.2459984       1.47492099      -20.0000000       170.698029       3.10072862E-02
  -51.7500000       1.29565406      -20.0000000       170.698029       3.10072862E-02
  -51.6464691       2.90894699      -20.0000000       170.698029       3.10072862E-02
  -50.2011604       3.04989505      -20.0000000       170.698029       3.10072862E-02
  -54.6465797       5.53822613      -20.0000000       132.588165      0.587444603    
  -53.2416306       6.06926107      -20.0000000       132.588165      0.587444603    
  -53.0954399       4.36336088      -20.0000000       132.588165      0.587444603    
  -54.5736809       4.04919481      -20.0000000       132.588165      0.587444603    
  -47.2643318      -1.55986798      -20.0000000       181.372421     -0.588627994    
  -48.7658615      -1.56390297      -20.0000000       181.372421     -0.588627994    
  -48.7753716      -1.42937005E-02  -20.0000000       181.372421     -0.588627994    
  -47.2657204       0.00000000      -20.0000000       181.372421     -0.588627994    
  -48.7753716      -1.42937005E-02  -20.0000000       177.960281     -0.268551439    
  -50.2816200      -7.23225027E-02  -20.0000000       177.960281     -0.268551439    
  -50.2459984       1.47492099      -20.0000000       177.960281     -0.268551439    
  -48.7560692       1.53868604      -20.0000000       177.960281     -0.268551439    
  -51.6464691       2.90894699      -20.0000000       157.034821      0.310412437    
  -53.0367393       2.70281792      -20.0000000       157.034821      0.310412437    
  -53.0954399       4.36336088      -20.0000000       157.034821      0.310412437    
  -51.6648903       4.56408405      -20.0000000       157.034821      0.310412437    
  -41.2618294      -6.25000000      -20.0000000       186.204041      -1.89484417    
  -42.7680206      -6.25000000      -20.0000000       186.204041      -1.89484417    
  -42.7620697      -4.68767691      -20.0000000       186.204041      -1.89484417    
  -41.2566490      -4.68782711      -20.0000000       186.204041      -1.89484417    
  -44.2611694      -3.12488103      -20.0000000       193.393906      -1.53706491    
  -42.7563400      -3.12513494      -20.0000000       193.393906      -1.53706491    
  -42.7620697      -4.68767691      -20.0000000       193.393906      -1.53706491    
  -44.2670212      -4.68766403      -20.0000000       193.393906      -1.53706491    
  -44.2611694      -3.12488103      -20.0000000       193.238159      -1.21018124    
  -45.7611885      -3.12411094      -20.0000000       193.238159      -1.21018124    
  -45.7603798      -1.56126106      -20.0000000       193.238159      -1.21018124    
  -44.2565308      -1.56226599      -20.0000000       193.238159      -1.21018124    
  -45.7603798      -1.56126106      -20.0000000       189.306885     -0.895009220    
  -47.2643318      -1.55986798      -20.0000000       189.306885     -0.895009220    
  -47.2657204       0.00000000      -20.0000000       189.306885     -0.895009220    
  -45.7582893       0.00000000      -20.0000000       189.306885     -0.895009220    
  -47.2657204       0.00000000      -20.0000000       181.387161     -0.589325130    
  -48.7753716      -1.42937005E-02  -20.0000000       181.387161     -0.589325130    
  -48.7560692       1.53868604      -20.0000000       181.387161     -0.589325130    
  -47.2535896       1.55706894      -20.0000000       181.387161     -0.589325130    
  -48.7560692       1.53868604      -20.0000000       168.352783     -0.293753266    
  -50.2459984       1.47492099      -20.0000000       168.352783     -0.293753266    
  -50.2011604       3.04989505      -20.0000000       168.352783     -0.293753266    
  -48.7281189       3.10503101      -20.0000000       168.352783     -0.293753266    
  -50.2011604       3.04989505      -20.0000000       148.080765      -9.50303569E-04
  -51.6464691       2.90894699      -20.0000000       148.080765      -9.50303569E-04
  -51.6648903       4.56408405      -20.0000000       148.080765      -9.50303569E-04
  -50.2067184       4.64797401      -20.0000000       148.080765      -9.50303569E-04
  -51.6648903       4.56408405      -20.0000000       112.140610      0.307332337    
  -53.0954399       4.36336088      -20.0000000       112.140610      0.307332337    
  -53.2416306       6.06926107      -20.0000000       112.140610      0.307332337    
  -51.7500000       6.25000000      -20.0000000       112.140610      0.307332337    
  -39.7556496      -6.25000000      -20.0000000       192.102356      -2.05107355    
  -41.2618294      -6.25000000      -20.0000000       192.102356      -2.05107355    
  -41.2566490      -4.68782711      -20.0000000       192.102356      -2.05107355    
  -39.7507591      -4.68851089      -20.0000000       192.102356      -2.05107355    
  -41.2566490      -4.68782711      -20.0000000       203.810394      -1.75397861    
  -42.7620697      -4.68767691      -20.0000000       203.810394      -1.75397861    
  -42.7563400      -3.12513494      -20.0000000       203.810394      -1.75397861    
  -41.2511406      -3.12541890      -20.0000000       203.810394      -1.75397861    
  -44.2565308      -1.56226599      -20.0000000       204.425522      -1.46442425    
  -42.7509499      -1.56253600      -20.0000000       204.425522      -1.46442425    
  -42.7563400      -3.12513494      -20.0000000       204.425522      -1.46442425    
  -44.2611694      -3.12488103      -20.0000000       204.425522      -1.46442425    
  -44.2565308      -1.56226599      -20.0000000       199.484924      -1.17757165    
  -45.7603798      -1.56126106      -20.0000000       199.484924      -1.17757165    
  -45.7582893       0.00000000      -20.0000000       199.484924      -1.17757165    
  -44.2515602       0.00000000      -20.0000000       199.484924      -1.17757165    
  -45.7582893       0.00000000      -20.0000000       189.292145     -0.895974338    
  -47.2657204       0.00000000      -20.0000000       189.292145     -0.895974338    
  -47.2535896       1.55706894      -20.0000000       189.292145     -0.895974338    
  -45.7509003       1.56100297      -20.0000000       189.292145     -0.895974338    
  -47.2535896       1.55706894      -20.0000000       172.398361     -0.621338665    
  -48.7560692       1.53868604      -20.0000000       172.398361     -0.621338665    
  -48.7281189       3.10503101      -20.0000000       172.398361     -0.621338665    
  -47.2370110       3.11982203      -20.0000000       172.398361     -0.621338665    
  -48.7281189       3.10503101      -20.0000000       145.933456     -0.351225585    
  -50.2011604       3.04989505      -20.0000000       145.933456     -0.351225585    
  -50.2067184       4.64797401      -20.0000000       145.933456     -0.351225585    
  -48.7241211       4.67746210      -20.0000000       145.933456     -0.351225585    
  -50.2067184       4.64797401      -20.0000000       99.7288132      -8.08202326E-02
  -51.6648903       4.56408405      -20.0000000       99.7288132      -8.08202326E-02
  -51.7500000       6.25000000      -20.0000000       99.7288132      -8.08202326E-02
  -50.2455711       6.25000000      -20.0000000       99.7288132      -8.08202326E-02
  -38.2494698      -6.25000000      -20.0000000       189.327560      -2.20448470    
  -39.7556496      -6.25000000      -20.0000000       189.327560      -2.20448470    
  -39.7507591      -4.68851089      -20.0000000       189.327560      -2.20448470    
  -38.2446404      -4.68936491      -20.0000000       189.327560      -2.20448470    
  -39.7507591      -4.68851089      -20.0000000       208.394119      -1.95681870    
  -41.2566490      -4.68782711      -20.0000000       208.394119      -1.95681870    
  -41.2511406      -3.12541890      -20.0000000       208.394119      -1.95681870    
  -39.7453995      -3.12673903      -20.0000000       208.394119      -1.95681870    
  -41.2511406      -3.12541890      -20.0000000       212.694244      -1.69776094    
  -42.7563400      -3.12513494      -20.0000000       212.694244      -1.69776094    
  -42.7509499      -1.56253600      -20.0000000       212.694244      -1.69776094    
  -41.2455711      -1.56282198      -20.0000000       212.694244      -1.69776094    
  -44.2515602       0.00000000      -20.0000000       209.343887      -1.43598604    
  -42.7457504       0.00000000      -20.0000000       209.343887      -1.43598604    
  -42.7509499      -1.56253600      -20.0000000       209.343887      -1.43598604    
  -44.2565308      -1.56226599      -20.0000000       209.343887      -1.43598604    
  -44.2515602       0.00000000      -20.0000000       199.485443      -1.17849648    
  -45.7582893       0.00000000      -20.0000000       199.485443      -1.17849648    
  -45.7509003       1.56100297      -20.0000000       199.485443      -1.17849648    
  -44.2452011       1.56199801      -20.0000000       199.485443      -1.17849648    
  -45.7509003       1.56100297      -20.0000000       181.532822     -0.931457162    
  -47.2535896       1.55706894      -20.0000000       181.532822     -0.931457162    
  -47.2370110       3.11982203      -20.0000000       181.532822     -0.931457162    
  -45.7402802       3.12332392      -20.0000000       181.532822     -0.931457162    
  -47.2370110       3.11982203      -20.0000000       151.973969     -0.702129424    
  -48.7281189       3.10503101      -20.0000000       151.973969     -0.702129424    
  -48.7241211       4.67746210      -20.0000000       151.973969     -0.702129424    
  -47.2300911       4.68496799      -20.0000000       151.973969     -0.702129424    
  -48.7241211       4.67746210      -20.0000000       99.7618484     -0.536073387    
  -50.2067184       4.64797401      -20.0000000       99.7618484     -0.536073387    
  -50.2455711       6.25000000      -20.0000000       99.7618484     -0.536073387    
  -48.7411499       6.25000000      -20.0000000       99.7618484     -0.536073387    
  -36.7432899      -6.25000000      -20.0000000       177.776550      -2.36764860    
  -38.2494698      -6.25000000      -20.0000000       177.776550      -2.36764860    
  -38.2446404      -4.68936491      -20.0000000       177.776550      -2.36764860    
  -36.7384796      -4.68897390      -20.0000000       177.776550      -2.36764860    
  -38.2446404      -4.68936491      -20.0000000       206.124390      -2.15662122    
  -39.7507591      -4.68851089      -20.0000000       206.124390      -2.15662122    
  -39.7453995      -3.12673903      -20.0000000       206.124390      -2.15662122    
  -38.2396507      -3.12933803      -20.0000000       206.124390      -2.15662122    
  -39.7453995      -3.12673903      -20.0000000       216.065842      -1.91923380    
  -41.2511406      -3.12541890      -20.0000000       216.065842      -1.91923380    
  -41.2455711      -1.56282198      -20.0000000       216.065842      -1.91923380    
  -39.7399902      -1.56351995      -20.0000000       216.065842      -1.91923380    
  -41.2455711      -1.56282198      -20.0000000       216.576508      -1.67551172    
  -42.7509499      -1.56253600      -20.0000000       216.576508      -1.67551172    
  -42.7457504       0.00000000      -20.0000000       216.576508      -1.67551172    
  -41.2401695       0.00000000      -20.0000000       216.576508      -1.67551172    
  -44.2452011       1.56199801      -20.0000000       209.340179      -1.43694663    
  -42.7402611       1.56238496      -20.0000000       209.340179      -1.43694663    
  -42.7457504       0.00000000      -20.0000000       209.340179      -1.43694663    
  -44.2515602       0.00000000      -20.0000000       209.340179      -1.43694663    
  -44.2452011       1.56199801      -20.0000000       193.152481      -1.21322703    
  -45.7509003       1.56100297      -20.0000000       193.152481      -1.21322703    
  -45.7402802       3.12332392      -20.0000000       193.152481      -1.21322703    
  -44.2380295       3.12447906      -20.0000000       193.152481      -1.21322703    
  -45.7402802       3.12332392      -20.0000000       164.307678      -1.02174890    
  -47.2370110       3.11982203      -20.0000000       164.307678      -1.02174890    
  -47.2300911       4.68496799      -20.0000000       164.307678      -1.02174890    
  -45.7329903       4.68700409      -20.0000000       164.307678      -1.02174890    
  -47.2300911       4.68496799      -20.0000000       112.189873     -0.954007924    
  -48.7241211       4.67746210      -20.0000000       112.189873     -0.954007924    
  -48.7411499       6.25000000      -20.0000000       112.189873     -0.954007924    
  -47.2367287       6.25000000      -20.0000000       112.189873     -0.954007924    
  -35.2371101      -6.25000000      -20.0000000       158.554642      -2.55705500    
  -36.7432899      -6.25000000      -20.0000000       158.554642      -2.55705500    
  -36.7384796      -4.68897390      -20.0000000       158.554642      -2.55705500    
  -35.2325211      -4.68835878      -20.0000000       158.554642      -2.55705500    
  -36.7384796      -4.68897390      -20.0000000       196.915192      -2.36599612    
  -38.2446404      -4.68936491      -20.0000000       196.915192      -2.36599612    
  -38.2396507      -3.12933803      -20.0000000       196.915192      -2.36599612    
  -36.7339096      -3.12783909      -20.0000000       196.915192      -2.36599612    
  -38.2396507      -3.12933803      -20.0000000       213.688797      -2.13835597    
  -39.7453995      -3.12673903      -20.0000000       213.688797      -2.13835597    
  -39.7399902      -1.56351995      -20.0000000       213.688797      -2.13835597    
  -38.2346497      -1.56438303      -20.0000000       213.688797      -2.13835597    
  -39.7399902      -1.56351995      -20.0000000       219.314423      -1.90452516    
  -41.2455711      -1.56282198      -20.0000000       219.314423      -1.90452516    
  -41.2401695       0.00000000      -20.0000000       219.314423      -1.90452516    