 VARIABLES="X" "Y" "Z" "abs(p) (Pa)" "angle(p) (rad)"
ZONE N=   3650,E =    3624, F=FEPOINT, ET=QUADRILATERAL
  -56.5164909      -2.47323704      -20.0000000       15020.3418       1.57079649    
  -55.4176407      -3.26747894      -20.0000000       15020.3418       1.57079649    
  -55.9264717      -4.64953518      -20.0000000       15020.3418       1.57079649    
  -56.9148483      -3.51935697      -20.0000000       15020.3418       1.57079649    
  -56.9148483      -3.51935697      -20.0000000       13544.1836       1.57079661    
  -57.6058807      -2.18402195      -20.0000000       13544.1836       1.57079661    
  -56.5164909      -2.47323704      -20.0000000       13544.1836       1.57079661    
  -56.5164909      -2.47323704      -20.0000000       13544.1836       1.57079661    
  -54.6953812      -5.51239681      -20.0000000       15905.5000       1.57079637    
  -55.9264717      -4.64953518      -20.0000000       15905.5000       1.57079637    
  -55.4176407      -3.26747894      -20.0000000       15905.5000       1.57079637    
  -54.2450790      -3.94889998      -20.0000000       15905.5000       1.57079637    
  -54.2450790      -3.94889998      -20.0000000       16569.1934       1.57079637    
  -52.9834785      -4.46340179      -20.0000000       16569.1934       1.57079637    
  -53.2955093      -6.05576801      -20.0000000       16569.1934       1.57079637    
  -54.6953812      -5.51239681      -20.0000000       16569.1934       1.57079637    
  -56.5223999      -1.11500299      -20.0000000       14808.0205       1.57079661    
  -56.5164909      -2.47323704      -20.0000000       14808.0205       1.57079661    
  -57.6058807      -2.18402195      -20.0000000       14808.0205       1.57079661    
  -57.9577713     -0.724482894      -20.0000000       14808.0205       1.57079661    
  -56.5164909      -2.47323704      -20.0000000       18188.8438       1.57079649    
  -56.5223999      -1.11500299      -20.0000000       18188.8438       1.57079649    
  -55.1657600      -1.76926601      -20.0000000       18188.8438       1.57079649    
  -55.4176407      -3.26747894      -20.0000000       18188.8438       1.57079649    
  -54.2450790      -3.94889998      -20.0000000       19892.9668       1.57079637    
  -55.4176407      -3.26747894      -20.0000000       19892.9668       1.57079637    
  -55.1657600      -1.76926601      -20.0000000       19892.9668       1.57079637    
  -53.8819199      -2.32836604      -20.0000000       19892.9668       1.57079637    
  -52.9834785      -4.46340179      -20.0000000       17279.6680       1.57079625    
  -51.6155815      -4.69134283      -20.0000000       17279.6680       1.57079625    
  -51.8049088      -6.24783087      -20.0000000       17279.6680       1.57079625    
  -53.2955093      -6.05576801      -20.0000000       17279.6680       1.57079625    
  -56.3964119      0.254809886      -20.0000000       15380.2480       1.57079661    
  -56.5223999      -1.11500299      -20.0000000       15380.2480       1.57079661    
  -57.9577713     -0.724482894      -20.0000000       15380.2480       1.57079661    
  -57.9511719      0.779103875      -20.0000000       15380.2480       1.57079661    
  -53.8819199      -2.32836604      -20.0000000       20884.0039       1.57079637    
  -52.7235603      -2.92538095      -20.0000000       20884.0039       1.57079637    
  -52.9834785      -4.46340179      -20.0000000       20884.0039       1.57079637    
  -54.2450790      -3.94889998      -20.0000000       20884.0039       1.57079637    
  -56.5223999      -1.11500299      -20.0000000       19530.1523       1.57079649    
  -56.3964119      0.254809886      -20.0000000       19530.1523       1.57079649    
  -54.8835487     -0.325594515      -20.0000000       19530.1523       1.57079649    
  -55.1657600      -1.76926601      -20.0000000       19530.1523       1.57079649    
  -50.2990494      -6.25000000      -20.0000000       18162.6113       1.57079613    
  -51.8049088      -6.24783087      -20.0000000       18162.6113       1.57079613    
  -51.6155815      -4.69134283      -20.0000000       18162.6113       1.57079613    
  -50.1911316      -4.70199823      -20.0000000       18162.6113       1.57079613    
  -53.8819199      -2.32836604      -20.0000000       21941.0039       1.57079637    
  -55.1657600      -1.76926601      -20.0000000       21941.0039       1.57079637    
  -54.8835487     -0.325594515      -20.0000000       21941.0039       1.57079637    
  -53.3087082     -0.726661325      -20.0000000       21941.0039       1.57079637    
  -52.7235603      -2.92538095      -20.0000000       21674.2930       1.57079625    
  -51.4683685      -3.18431592      -20.0000000       21674.2930       1.57079625    
  -51.6155815      -4.69134283      -20.0000000       21674.2930       1.57079625    
  -52.9834785      -4.46340179      -20.0000000       21674.2930       1.57079625    
  -56.1067696       1.60355306      -20.0000000       15600.8008       1.57079661    
  -56.3964119      0.254809886      -20.0000000       15600.8008       1.57079661    
  -57.9511719      0.779103875      -20.0000000       15600.8008       1.57079661    
  -57.5863686       2.23558092      -20.0000000       15600.8008       1.57079661    
  -56.3964119      0.254809886      -20.0000000       20024.0137       1.57079649    
  -56.1067696       1.60355306      -20.0000000       20024.0137       1.57079649    
  -54.6488190       1.11988902      -20.0000000       20024.0137       1.57079649    
  -54.8835487     -0.325594515      -20.0000000       20024.0137       1.57079649    
  -51.8859215      -1.67511594      -20.0000000       23351.9043       1.57079637    
  -52.7235603      -2.92538095      -20.0000000       23351.9043       1.57079637    
  -53.8819199      -2.32836604      -20.0000000       23351.9043       1.57079637    
  -53.3087082     -0.726661325      -20.0000000       23351.9043       1.57079637    
  -48.7928200      -6.25000000      -20.0000000       18993.6133       1.57079613    
  -50.2990494      -6.25000000      -20.0000000       18993.6133       1.57079613    
  -50.1911316      -4.70199823      -20.0000000       18993.6133       1.57079613    
  -48.7387619      -4.69004917      -20.0000000       18993.6133       1.57079613    
  -50.1911316      -4.70199823      -20.0000000       22630.2363       1.57079625    
  -51.6155815      -4.69134283      -20.0000000       22630.2363       1.57079625    
  -51.4683685      -3.18431592      -20.0000000       22630.2363       1.57079625    
  -50.1564102      -3.12996602      -20.0000000       22630.2363       1.57079625    
  -54.6488190       1.11988902      -20.0000000       22701.2754       1.57079637    
  -53.2043991       1.01675200      -20.0000000       22701.2754       1.57079637    
  -53.3087082     -0.726661325      -20.0000000       22701.2754       1.57079637    
  -54.8835487     -0.325594515      -20.0000000       22701.2754       1.57079637    
  -51.4683685      -3.18431592      -20.0000000       23659.2598       1.57079625    
  -52.7235603      -2.92538095      -20.0000000       23659.2598       1.57079625    
  -51.8859215      -1.67511594      -20.0000000       23659.2598       1.57079625    
  -51.8859215      -1.67511594      -20.0000000       23659.2598       1.57079625    
  -55.6295395       2.91055298      -20.0000000       15536.7725       1.57079649    
  -56.1067696       1.60355306      -20.0000000       15536.7725       1.57079649    
  -57.5863686       2.23558092      -20.0000000       15536.7725       1.57079649    
  -56.8836594       3.56473303      -20.0000000       15536.7725       1.57079649    
  -47.2866096      -6.25000000      -20.0000000       19614.9922       1.57079613    
  -48.7928200      -6.25000000      -20.0000000       19614.9922       1.57079613    
  -48.7387619      -4.69004917      -20.0000000       19614.9922       1.57079613    
  -47.2626686      -4.68801212      -20.0000000       19614.9922       1.57079613    
  -48.7387619      -4.69004917      -20.0000000       23577.4785       1.57079625    
  -50.1911316      -4.70199823      -20.0000000       23577.4785       1.57079625    
  -50.1564102      -3.12996602      -20.0000000       23577.4785       1.57079625    
  -48.7254105      -3.12169194      -20.0000000       23577.4785       1.57079625    
  -50.1564102      -3.12996602      -20.0000000       24837.8984       1.57079625    
  -51.4683685      -3.18431592      -20.0000000       24837.8984       1.57079625    
  -51.8859215      -1.67511594      -20.0000000       24837.8984       1.57079625    
  -50.2854195      -1.59545600      -20.0000000       24837.8984       1.57079625    
  -54.6488190       1.11988902      -20.0000000       19813.6641       1.57079637    
  -56.1067696       1.60355306      -20.0000000       19813.6641       1.57079637    
  -55.6295395       2.91055298      -20.0000000       19813.6641       1.57079637    
  -54.3531990       2.57653904      -20.0000000       19813.6641       1.57079637    
  -51.7686501     -0.191007897      -20.0000000       24609.5410       1.57079625    
  -51.8859215      -1.67511594      -20.0000000       24609.5410       1.57079625    
  -53.3087082     -0.726661325      -20.0000000       24609.5410       1.57079625    
  -53.3087082     -0.726661325      -20.0000000       24609.5410       1.57079625    
  -51.7686501     -0.191007897      -20.0000000       24516.9141       1.57079625    
  -53.3087082     -0.726661325      -20.0000000       24516.9141       1.57079625    
  -53.2043991       1.01675200      -20.0000000       24516.9141       1.57079625    
  -51.7500000       1.29565406      -20.0000000       24516.9141       1.57079625    
  -53.0367393       2.70281792      -20.0000000       22286.5625       1.57079637    
  -53.2043991       1.01675200      -20.0000000       22286.5625       1.57079637    
  -54.6488190       1.11988902      -20.0000000       22286.5625       1.57079637    
  -54.3531990       2.57653904      -20.0000000       22286.5625       1.57079637    
  -45.7804108      -6.25000000      -20.0000000       20088.8066       1.57079613    
  -47.2866096      -6.25000000      -20.0000000       20088.8066       1.57079613    
  -47.2626686      -4.68801212      -20.0000000       20088.8066       1.57079613    
  -45.7679100      -4.68779421      -20.0000000       20088.8066       1.57079613    
  -47.2626686      -4.68801212      -20.0000000       24301.7773       1.57079613    
  -48.7387619      -4.69004917      -20.0000000       24301.7773       1.57079613    
  -48.7254105      -3.12169194      -20.0000000       24301.7773       1.57079613    
  -47.2550507      -3.12222195      -20.0000000       24301.7773       1.57079613    
  -54.5736809       4.04919481      -20.0000000       15586.1338       1.57079649    
  -55.6295395       2.91055298      -20.0000000       15586.1338       1.57079649    
  -56.8836594       3.56473303      -20.0000000       15586.1338       1.57079649    
  -55.8850899       4.68635893      -20.0000000       15586.1338       1.57079649    
  -48.7254105      -3.12169194      -20.0000000       25879.1289       1.57079625    
  -50.1564102      -3.12996602      -20.0000000       25879.1289       1.57079625    
  -50.2854195      -1.59545600      -20.0000000       25879.1289       1.57079625    
  -48.7658615      -1.56390297      -20.0000000       25879.1289       1.57079625    
  -50.2854195      -1.59545600      -20.0000000       25763.9980       1.57079625    
  -51.8859215      -1.67511594      -20.0000000       25763.9980       1.57079625    
  -51.7686501     -0.191007897      -20.0000000       25763.9980       1.57079625    
  -50.2816200      -7.23225027E-02  -20.0000000       25763.9980       1.57079625    
  -55.6295395       2.91055298      -20.0000000       19023.4082       1.57079637    
  -54.5736809       4.04919481      -20.0000000       19023.4082       1.57079637    
  -54.3531990       2.57653904      -20.0000000       19023.4082       1.57079637    
  -54.3531990       2.57653904      -20.0000000       19023.4082       1.57079637    
  -51.6464691       2.90894699      -20.0000000       23860.7656       1.57079625    
  -51.7500000       1.29565406      -20.0000000       23860.7656       1.57079625    
  -53.2043991       1.01675200      -20.0000000       23860.7656       1.57079625    
  -53.0367393       2.70281792      -20.0000000       23860.7656       1.57079625    
  -44.2742119      -6.25000000      -20.0000000       20466.9961       1.57079613    
  -45.7804108      -6.25000000      -20.0000000       20466.9961       1.57079613    
  -45.7679100      -4.68779421      -20.0000000       20466.9961       1.57079613    
  -44.2670212      -4.68766403      -20.0000000       20466.9961       1.57079613    
  -45.7679100      -4.68779421      -20.0000000       24869.7578       1.57079613    
  -47.2626686      -4.68801212      -20.0000000       24869.7578       1.57079613    
  -47.2550507      -3.12222195      -20.0000000       24869.7578       1.57079613    
  -45.7611885      -3.12411094      -20.0000000       24869.7578       1.57079613    
  -51.7500000       1.29565406      -20.0000000       25882.2148       1.57079625    
  -50.2459984       1.47492099      -20.0000000       25882.2148       1.57079625    
  -50.2816200      -7.23225027E-02  -20.0000000       25882.2148       1.57079625    
  -51.7686501     -0.191007897      -20.0000000       25882.2148       1.57079625    
  -47.2550507      -3.12222195      -20.0000000       26675.8281       1.57079625    
  -48.7254105      -3.12169194      -20.0000000       26675.8281       1.57079625    
  -48.7658615      -1.56390297      -20.0000000       26675.8281       1.57079625    
  -47.2643318      -1.55986798      -20.0000000       26675.8281       1.57079625    
  -48.7658615      -1.56390297      -20.0000000       26885.8223       1.57079625    
  -50.2854195      -1.59545600      -20.0000000       26885.8223       1.57079625    
  -50.2816200      -7.23225027E-02  -20.0000000       26885.8223       1.57079625    
  -48.7753716      -1.42937005E-02  -20.0000000       26885.8223       1.57079625    
  -54.5736809       4.04919481      -20.0000000       20444.4863       1.57079637    
  -53.0954399       4.36336088      -20.0000000       20444.4863       1.57079637    
  -53.0367393       2.70281792      -20.0000000       20444.4863       1.57079637    
  -54.3531990       2.57653904      -20.0000000       20444.4863       1.57079637    
  -54.6465797       5.53822613      -20.0000000       14673.6064       1.57079637    
  -54.5736809       4.04919481      -20.0000000       14673.6064       1.57079637    
  -55.8850899       4.68635893      -20.0000000       14673.6064       1.57079637    
  -55.8850899       4.68635893      -20.0000000       14673.6064       1.57079637    
  -44.2670212      -4.68766403      -20.0000000       20776.9785       1.57079613    
  -42.7620697      -4.68767691      -20.0000000       20776.9785       1.57079613    
  -42.7680206      -6.25000000      -20.0000000       20776.9785       1.57079613    
  -44.2742119      -6.25000000      -20.0000000       20776.9785       1.57079613    
  -44.2670212      -4.68766403      -20.0000000       25329.0137       1.57079613    
  -45.7679100      -4.68779421      -20.0000000       25329.0137       1.57079613    
  -45.7611885      -3.12411094      -20.0000000       25329.0137       1.57079613    
  -44.2611694      -3.12488103      -20.0000000       25329.0137       1.57079613    
  -45.7611885      -3.12411094      -20.0000000       27303.2559       1.57079625    
  -47.2550507      -3.12222195      -20.0000000       27303.2559       1.57079625    
  -47.2643318      -1.55986798      -20.0000000       27303.2559       1.57079625    
  -45.7603798      -1.56126106      -20.0000000       27303.2559       1.57079625    
  -50.2459984       1.47492099      -20.0000000       25013.1914       1.57079625    
  -51.7500000       1.29565406      -20.0000000       25013.1914       1.57079625    
  -51.6464691       2.90894699      -20.0000000       25013.1914       1.57079625    
  -50.2011604       3.04989505      -20.0000000       25013.1914       1.57079625    
  -54.6465797       5.53822613      -20.0000000       16482.3301       1.57079637    
  -53.2416306       6.06926107      -20.0000000       16482.3301       1.57079637    
  -53.0954399       4.36336088      -20.0000000       16482.3301       1.57079637    
  -54.5736809       4.04919481      -20.0000000       16482.3301       1.57079637    
  -47.2643318      -1.55986798      -20.0000000       27734.5449       1.57079625    
  -48.7658615      -1.56390297      -20.0000000       27734.5449       1.57079625    
  -48.7753716      -1.42937005E-02  -20.0000000       27734.5449       1.57079625    
  -47.2657204       0.00000000      -20.0000000       27734.5449       1.57079625    
  -48.7753716      -1.42937005E-02  -20.0000000       26918.6191       1.57079625    
  -50.2816200      -7.23225027E-02  -20.0000000       26918.6191       1.57079625    
  -50.2459984       1.47492099      -20.0000000       26918.6191       1.57079625    
  -48.7560692       1.53868604      -20.0000000       26918.6191       1.57079625    
  -51.6464691       2.90894699      -20.0000000       21841.9551       1.57079625    
  -53.0367393       2.70281792      -20.0000000       21841.9551       1.57079625    
  -53.0954399       4.36336088      -20.0000000       21841.9551       1.57079625    
  -51.6648903       4.56408405      -20.0000000       21841.9551       1.57079625    
  -41.2618294      -6.25000000      -20.0000000       21036.3027       1.57079613    
  -42.7680206      -6.25000000      -20.0000000       21036.3027       1.57079613    
  -42.7620697      -4.68767691      -20.0000000       21036.3027       1.57079613    
  -41.2566490      -4.68782711      -20.0000000       21036.3027       1.57079613    
  -44.2611694      -3.12488103      -20.0000000       25707.6270       1.57079613    
  -42.7563400      -3.12513494      -20.0000000       25707.6270       1.57079613    
  -42.7620697      -4.68767691      -20.0000000       25707.6270       1.57079613    
  -44.2670212      -4.68766403      -20.0000000       25707.6270       1.57079613    
  -44.2611694      -3.12488103      -20.0000000       27811.0645       1.57079625    
  -45.7611885      -3.12411094      -20.0000000       27811.0645       1.57079625    
  -45.7603798      -1.56126106      -20.0000000       27811.0645       1.57079625    
  -44.2565308      -1.56226599      -20.0000000       27811.0645       1.57079625    
  -45.7603798      -1.56126106      -20.0000000       28398.4707       1.57079625    
  -47.2643318      -1.55986798      -20.0000000       28398.4707       1.57079625    
  -47.2657204       0.00000000      -20.0000000       28398.4707       1.57079625    
  -45.7582893       0.00000000      -20.0000000       28398.4707       1.57079625    
  -47.2657204       0.00000000      -20.0000000       27741.4668       1.57079625    
  -48.7753716      -1.42937005E-02  -20.0000000       27741.4668       1.57079625    
  -48.7560692       1.53868604      -20.0000000       27741.4668       1.57079625    
  -47.2535896       1.55706894      -20.0000000       27741.4668       1.57079625    
  -48.7560692       1.53868604      -20.0000000       25930.5391       1.57079625    
  -50.2459984       1.47492099      -20.0000000       25930.5391       1.57079625    
  -50.2011604       3.04989505      -20.0000000       25930.5391       1.57079625    
  -48.7281189       3.10503101      -20.0000000       25930.5391       1.57079625    
  -50.2011604       3.04989505      -20.0000000       22838.1582       1.57079625    
  -51.6464691       2.90894699      -20.0000000       22838.1582       1.57079625    
  -51.6648903       4.56408405      -20.0000000       22838.1582       1.57079625    
  -50.2067184       4.64797401      -20.0000000       22838.1582       1.57079625    
  -51.6648903       4.56408405      -20.0000000       17471.5938       1.57079625    
  -53.0954399       4.36336088      -20.0000000       17471.5938       1.57079625    
  -53.2416306       6.06926107      -20.0000000       17471.5938       1.57079625    
  -51.7500000       6.25000000      -20.0000000       17471.5938       1.57079625    
  -39.7556496      -6.25000000      -20.0000000       21260.4473       1.57079613    
  -41.2618294      -6.25000000      -20.0000000       21260.4473       1.57079613    
  -41.2566490      -4.68782711      -20.0000000       21260.4473       1.57079613    
  -39.7507591      -4.68851089      -20.0000000       21260.4473       1.57079613    
  -41.2566490      -4.68782711      -20.0000000       26025.2832       1.57079613    
  -42.7620697      -4.68767691      -20.0000000       26025.2832       1.57079613    
  -42.7563400      -3.12513494      -20.0000000       26025.2832       1.57079613    
  -41.2511406      -3.12541890      -20.0000000       26025.2832       1.57079613    
  -44.2565308      -1.56226599      -20.0000000       28227.6914       1.57079613    
  -42.7509499      -1.56253600      -20.0000000       28227.6914       1.57079613    
  -42.7563400      -3.12513494      -20.0000000       28227.6914       1.57079613    
  -44.2611694      -3.12488103      -20.0000000       28227.6914       1.57079613    
  -44.2565308      -1.56226599      -20.0000000       28931.7422       1.57079625    
  -45.7603798      -1.56126106      -20.0000000       28931.7422       1.57079625    
  -45.7582893       0.00000000      -20.0000000       28931.7422       1.57079625    
  -44.2515602       0.00000000      -20.0000000       28931.7422       1.57079625    
  -45.7582893       0.00000000      -20.0000000       28400.0098       1.57079625    
  -47.2657204       0.00000000      -20.0000000       28400.0098       1.57079625    
  -47.2535896       1.55706894      -20.0000000       28400.0098       1.57079625    
  -45.7509003       1.56100297      -20.0000000       28400.0098       1.57079625    
  -47.2535896       1.55706894      -20.0000000       26686.2891       1.57079625    
  -48.7560692       1.53868604      -20.0000000       26686.2891       1.57079625    
  -48.7281189       3.10503101      -20.0000000       26686.2891       1.57079625    
  -47.2370110       3.11982203      -20.0000000       26686.2891       1.57079625    
  -48.7281189       3.10503101      -20.0000000       23644.2969       1.57079625    
  -50.2011604       3.04989505      -20.0000000       23644.2969       1.57079625    
  -50.2067184       4.64797401      -20.0000000       23644.2969       1.57079625    
  -48.7241211       4.67746210      -20.0000000       23644.2969       1.57079625    
  -50.2067184       4.64797401      -20.0000000       18339.5820       1.57079613    
  -51.6648903       4.56408405      -20.0000000       18339.5820       1.57079613    
  -51.7500000       6.25000000      -20.0000000       18339.5820       1.57079613    
  -50.2455711       6.25000000      -20.0000000       18339.5820       1.57079613    
  -38.2494698      -6.25000000      -20.0000000       21458.2656       1.57079613    
  -39.7556496      -6.25000000      -20.0000000       21458.2656       1.57079613    
  -39.7507591      -4.68851089      -20.0000000       21458.2656       1.57079613    
  -38.2446404      -4.68936491      -20.0000000       21458.2656       1.57079613    
  -39.7507591      -4.68851089      -20.0000000       26296.1816       1.57079613    
  -41.2566490      -4.68782711      -20.0000000       26296.1816       1.57079613    
  -41.2511406      -3.12541890      -20.0000000       26296.1816       1.57079613    
  -39.7453995      -3.12673903      -20.0000000       26296.1816       1.57079613    
  -41.2511406      -3.12541890      -20.0000000       28578.1973       1.57079613    
  -42.7563400      -3.12513494      -20.0000000       28578.1973       1.57079613    
  -42.7509499      -1.56253600      -20.0000000       28578.1973       1.57079613    
  -41.2455711      -1.56282198      -20.0000000       28578.1973       1.57079613    
  -44.2515602       0.00000000      -20.0000000       29369.0332       1.57079625    
  -42.7457504       0.00000000      -20.0000000       29369.0332       1.57079625    
  -42.7509499      -1.56253600      -20.0000000       29369.0332       1.57079625    
  -44.2565308      -1.56226599      -20.0000000       29369.0332       1.57079625    
  -44.2515602       0.00000000      -20.0000000       28933.0430       1.57079625    
  -45.7582893       0.00000000      -20.0000000       28933.0430       1.57079625    
  -45.7509003       1.56100297      -20.0000000       28933.0430       1.57079625    
  -44.2452011       1.56199801      -20.0000000       28933.0430       1.57079625    
  -45.7509003       1.56100297      -20.0000000       27305.4141       1.57079625    
  -47.2535896       1.55706894      -20.0000000       27305.4141       1.57079625    
  -47.2370110       3.11982203      -20.0000000       27305.4141       1.57079625    
  -45.7402802       3.12332392      -20.0000000       27305.4141       1.57079625    
  -47.2370110       3.11982203      -20.0000000       24319.4375       1.57079613    
  -48.7281189       3.10503101      -20.0000000       24319.4375       1.57079613    
  -48.7241211       4.67746210      -20.0000000       24319.4375       1.57079613    
  -47.2300911       4.68496799      -20.0000000       24319.4375       1.57079613    
  -48.7241211       4.67746210      -20.0000000       19069.3047       1.57079613    
  -50.2067184       4.64797401      -20.0000000       19069.3047       1.57079613    
  -50.2455711       6.25000000      -20.0000000       19069.3047       1.57079613    
  -48.7411499       6.25000000      -20.0000000       19069.3047       1.57079613    
  -36.7432899      -6.25000000      -20.0000000       21637.2539       1.57079613    
  -38.2494698      -6.25000000      -20.0000000       21637.2539       1.57079613    
  -38.2446404      -4.68936491      -20.0000000       21637.2539       1.57079613    
  -36.7384796      -4.68897390      -20.0000000       21637.2539       1.57079613    
  -38.2446404      -4.68936491      -20.0000000       26533.2773       1.57079613    
  -39.7507591      -4.68851089      -20.0000000       26533.2773       1.57079613    
  -39.7453995      -3.12673903      -20.0000000       26533.2773       1.57079613    
  -38.2396507      -3.12933803      -20.0000000       26533.2773       1.57079613    
  -39.7453995      -3.12673903      -20.0000000       28876.6074       1.57079625    
  -41.2511406      -3.12541890      -20.0000000       28876.6074       1.57079625    
  -41.2455711      -1.56282198      -20.0000000       28876.6074       1.57079625    
  -39.7399902      -1.56351995      -20.0000000       28876.6074       1.57079625    
  -41.2455711      -1.56282198      -20.0000000       29735.9824       1.57079625    
  -42.7509499      -1.56253600      -20.0000000       29735.9824       1.57079625    
  -42.7457504       0.00000000      -20.0000000       29735.9824       1.57079625    
  -41.2401695       0.00000000      -20.0000000       29735.9824       1.57079625    
  -44.2452011       1.56199801      -20.0000000       29369.1875       1.57079625    
  -42.7402611       1.56238496      -20.0000000       29369.1875       1.57079625    
  -42.7457504       0.00000000      -20.0000000       29369.1875       1.57079625    
  -44.2515602       0.00000000      -20.0000000       29369.1875       1.57079625    
  -44.2452011       1.56199801      -20.0000000       27811.1367       1.57079625    
  -45.7509003       1.56100297      -20.0000000       27811.1367       1.57079625    
  -45.7402802       3.12332392      -20.0000000       27811.1367       1.57079625    
  -44.2380295       3.12447906      -20.0000000       27811.1367       1.57079625    
  -45.7402802       3.12332392      -20.0000000       24877.5586       1.57079613    
  -47.2370110       3.11982203      -20.0000000       24877.5586       1.57079613    
  -47.2300911       4.68496799      -20.0000000       24877.5586       1.57079613    
  -45.7329903       4.68700409      -20.0000000       24877.5586       1.57079613    
  -47.2300911       4.68496799      -20.0000000       19639.9414       1.57079613    
  -48.7241211       4.67746210      -20.0000000       19639.9414       1.57079613    
  -48.7411499       6.25000000      -20.0000000       19639.9414       1.57079613    
  -47.2367287       6.25000000      -20.0000000       19639.9414       1.57079613    
  -35.2371101      -6.25000000      -20.0000000       21805.4980       1.57079613    
  -36.7432899      -6.25000000      -20.0000000       21805.4980       1.57079613    
  -36.7384796      -4.68897390      -20.0000000       21805.4980       1.57079613    
  -35.2325211      -4.68835878      -20.0000000       21805.4980       1.57079613    
  -36.7384796      -4.68897390      -20.0000000       26746.0156       1.57079613    
  -38.2446404      -4.68936491      -20.0000000       26746.0156       1.57079613    
  -38.2396507      -3.12933803      -20.0000000       26746.0156       1.57079613    
  -36.7339096      -3.12783909      -20.0000000       26746.0156       1.57079613    
  -38.2396507      -3.12933803      -20.0000000       29137.6816       1.57079625    
  -39.7453995      -3.12673903      -20.0000000       29137.6816       1.57079625    
  -39.7399902      -1.56351995      -20.0000000       29137.6816       1.57079625    
  -38.2346497      -1.56438303      -20.0000000       29137.6816       1.57079625    
  -39.7399902      -1.56351995      -20.0000000       30045.5898       1.57079625    
  -41.2455711      -1.56282198      -20.0000000       30045.5898       1.57079625    
  -41.2401695       0.00000000      -20.0000000       30045.5898       1.57079625    