 VARIABLES="X" "Y" "Z" "abs(p) (Pa)" "angle(p) (rad)"
ZONE N=   3650,E =    3624, F=FEPOINT, ET=QUADRILATERAL
  -56.5164909      -2.47323704      -20.0000000       4148.88232       1.54796195    
  -55.4176407      -3.26747894      -20.0000000       4148.88232       1.54796195    
  -55.9264717      -4.64953518      -20.0000000       4148.88232       1.54796195    
  -56.9148483      -3.51935697      -20.0000000       4148.88232       1.54796195    
  -56.9148483      -3.51935697      -20.0000000       4563.79932       1.54959369    
  -57.6058807      -2.18402195      -20.0000000       4563.79932       1.54959369    
  -56.5164909      -2.47323704      -20.0000000       4563.79932       1.54959369    
  -56.5164909      -2.47323704      -20.0000000       4563.79932       1.54959369    
  -54.6953812      -5.51239681      -20.0000000       4601.86963       1.55293739    
  -55.9264717      -4.64953518      -20.0000000       4601.86963       1.55293739    
  -55.4176407      -3.26747894      -20.0000000       4601.86963       1.55293739    
  -54.2450790      -3.94889998      -20.0000000       4601.86963       1.55293739    
  -54.2450790      -3.94889998      -20.0000000       5379.45020       1.56009912    
  -52.9834785      -4.46340179      -20.0000000       5379.45020       1.56009912    
  -53.2955093      -6.05576801      -20.0000000       5379.45020       1.56009912    
  -54.6953812      -5.51239681      -20.0000000       5379.45020       1.56009912    
  -56.5223999      -1.11500299      -20.0000000       1678.27856       1.53713310    
  -56.5164909      -2.47323704      -20.0000000       1678.27856       1.53713310    
  -57.6058807      -2.18402195      -20.0000000       1678.27856       1.53713310    
  -57.9577713     -0.724482894      -20.0000000       1678.27856       1.53713310    
  -56.5164909      -2.47323704      -20.0000000       286.513885      -1.39471614    
  -56.5223999      -1.11500299      -20.0000000       286.513885      -1.39471614    
  -55.1657600      -1.76926601      -20.0000000       286.513885      -1.39471614    
  -55.4176407      -3.26747894      -20.0000000       286.513885      -1.39471614    
  -54.2450790      -3.94889998      -20.0000000       1477.55408      -1.54044771    
  -55.4176407      -3.26747894      -20.0000000       1477.55408      -1.54044771    
  -55.1657600      -1.76926601      -20.0000000       1477.55408      -1.54044771    
  -53.8819199      -2.32836604      -20.0000000       1477.55408      -1.54044771    
  -52.9834785      -4.46340179      -20.0000000       6213.82422       1.56601799    
  -51.6155815      -4.69134283      -20.0000000       6213.82422       1.56601799    
  -51.8049088      -6.24783087      -20.0000000       6213.82422       1.56601799    
  -53.2955093      -6.05576801      -20.0000000       6213.82422       1.56601799    
  -56.3964119      0.254809886      -20.0000000       58.8140450       1.45558965    
  -56.5223999      -1.11500299      -20.0000000       58.8140450       1.45558965    
  -57.9577713     -0.724482894      -20.0000000       58.8140450       1.45558965    
  -57.9511719      0.779103875      -20.0000000       58.8140450       1.45558965    
  -53.8819199      -2.32836604      -20.0000000       2132.51953      -1.55434585    
  -52.7235603      -2.92538095      -20.0000000       2132.51953      -1.55434585    
  -52.9834785      -4.46340179      -20.0000000       2132.51953      -1.55434585    
  -54.2450790      -3.94889998      -20.0000000       2132.51953      -1.55434585    
  -56.5223999      -1.11500299      -20.0000000       449.526428      -1.53443372    
  -56.3964119      0.254809886      -20.0000000       449.526428      -1.53443372    
  -54.8835487     -0.325594515      -20.0000000       449.526428      -1.53443372    
  -55.1657600      -1.76926601      -20.0000000       449.526428      -1.53443372    
  -50.2990494      -6.25000000      -20.0000000       6680.94678       1.56966233    
  -51.8049088      -6.24783087      -20.0000000       6680.94678       1.56966233    
  -51.6155815      -4.69134283      -20.0000000       6680.94678       1.56966233    
  -50.1911316      -4.70199823      -20.0000000       6680.94678       1.56966233    
  -53.8819199      -2.32836604      -20.0000000       1490.24890      -1.55866563    
  -55.1657600      -1.76926601      -20.0000000       1490.24890      -1.55866563    
  -54.8835487     -0.325594515      -20.0000000       1490.24890      -1.55866563    
  -53.3087082     -0.726661325      -20.0000000       1490.24890      -1.55866563    
  -52.7235603      -2.92538095      -20.0000000       2346.52417      -1.56136954    
  -51.4683685      -3.18431592      -20.0000000       2346.52417      -1.56136954    
  -51.6155815      -4.69134283      -20.0000000       2346.52417      -1.56136954    
  -52.9834785      -4.46340179      -20.0000000       2346.52417      -1.56136954    
  -56.1067696       1.60355306      -20.0000000       1104.79480      -1.60808182    
  -56.3964119      0.254809886      -20.0000000       1104.79480      -1.60808182    
  -57.9511719      0.779103875      -20.0000000       1104.79480      -1.60808182    
  -57.5863686       2.23558092      -20.0000000       1104.79480      -1.60808182    
  -56.3964119      0.254809886      -20.0000000       462.642548       1.59967530    
  -56.1067696       1.60355306      -20.0000000       462.642548       1.59967530    
  -54.6488190       1.11988902      -20.0000000       462.642548       1.59967530    
  -54.8835487     -0.325594515      -20.0000000       462.642548       1.59967530    
  -51.8859215      -1.67511594      -20.0000000       2603.93457      -1.56448841    
  -52.7235603      -2.92538095      -20.0000000       2603.93457      -1.56448841    
  -53.8819199      -2.32836604      -20.0000000       2603.93457      -1.56448841    
  -53.3087082     -0.726661325      -20.0000000       2603.93457      -1.56448841    
  -48.7928200      -6.25000000      -20.0000000       6975.86719       1.57161558    
  -50.2990494      -6.25000000      -20.0000000       6975.86719       1.57161558    
  -50.1911316      -4.70199823      -20.0000000       6975.86719       1.57161558    
  -48.7387619      -4.69004917      -20.0000000       6975.86719       1.57161558    
  -50.1911316      -4.70199823      -20.0000000       2475.14868      -1.56679344    
  -51.6155815      -4.69134283      -20.0000000       2475.14868      -1.56679344    
  -51.4683685      -3.18431592      -20.0000000       2475.14868      -1.56679344    
  -50.1564102      -3.12996602      -20.0000000       2475.14868      -1.56679344    
  -54.6488190       1.11988902      -20.0000000       391.525299       1.57883441    
  -53.2043991       1.01675200      -20.0000000       391.525299       1.57883441    
  -53.3087082     -0.726661325      -20.0000000       391.525299       1.57883441    
  -54.8835487     -0.325594515      -20.0000000       391.525299       1.57883441    
  -51.4683685      -3.18431592      -20.0000000       3356.83203      -1.56627917    
  -52.7235603      -2.92538095      -20.0000000       3356.83203      -1.56627917    
  -51.8859215      -1.67511594      -20.0000000       3356.83203      -1.56627917    
  -51.8859215      -1.67511594      -20.0000000       3356.83203      -1.56627917    
  -55.6295395       2.91055298      -20.0000000       2447.48169      -1.60232854    
  -56.1067696       1.60355306      -20.0000000       2447.48169      -1.60232854    
  -57.5863686       2.23558092      -20.0000000       2447.48169      -1.60232854    
  -56.8836594       3.56473303      -20.0000000       2447.48169      -1.60232854    
  -47.2866096      -6.25000000      -20.0000000       7351.08887       1.57236838    
  -48.7928200      -6.25000000      -20.0000000       7351.08887       1.57236838    
  -48.7387619      -4.69004917      -20.0000000       7351.08887       1.57236838    
  -47.2626686      -4.68801212      -20.0000000       7351.08887       1.57236838    
  -48.7387619      -4.69004917      -20.0000000       2539.78979      -1.57012486    
  -50.1911316      -4.70199823      -20.0000000       2539.78979      -1.57012486    
  -50.1564102      -3.12996602      -20.0000000       2539.78979      -1.57012486    
  -48.7254105      -3.12169194      -20.0000000       2539.78979      -1.57012486    
  -50.1564102      -3.12996602      -20.0000000       3440.83813      -1.56840086    
  -51.4683685      -3.18431592      -20.0000000       3440.83813      -1.56840086    
  -51.8859215      -1.67511594      -20.0000000       3440.83813      -1.56840086    
  -50.2854195      -1.59545600      -20.0000000       3440.83813      -1.56840086    
  -54.6488190       1.11988902      -20.0000000       1187.05432       1.60280085    
  -56.1067696       1.60355306      -20.0000000       1187.05432       1.60280085    
  -55.6295395       2.91055298      -20.0000000       1187.05432       1.60280085    
  -54.3531990       2.57653904      -20.0000000       1187.05432       1.60280085    
  -51.7686501     -0.191007897      -20.0000000       1428.81506      -1.56655025    
  -51.8859215      -1.67511594      -20.0000000       1428.81506      -1.56655025    
  -53.3087082     -0.726661325      -20.0000000       1428.81506      -1.56655025    
  -53.3087082     -0.726661325      -20.0000000       1428.81506      -1.56655025    
  -51.7686501     -0.191007897      -20.0000000       618.623840       1.57501566    
  -53.3087082     -0.726661325      -20.0000000       618.623840       1.57501566    
  -53.2043991       1.01675200      -20.0000000       618.623840       1.57501566    
  -51.7500000       1.29565406      -20.0000000       618.623840       1.57501566    
  -53.0367393       2.70281792      -20.0000000       2240.00708       1.58056927    
  -53.2043991       1.01675200      -20.0000000       2240.00708       1.58056927    
  -54.6488190       1.11988902      -20.0000000       2240.00708       1.58056927    
  -54.3531990       2.57653904      -20.0000000       2240.00708       1.58056927    
  -45.7804108      -6.25000000      -20.0000000       7693.00879       1.57228601    
  -47.2866096      -6.25000000      -20.0000000       7693.00879       1.57228601    
  -47.2626686      -4.68801212      -20.0000000       7693.00879       1.57228601    
  -45.7679100      -4.68779421      -20.0000000       7693.00879       1.57228601    
  -47.2626686      -4.68801212      -20.0000000       2407.57104      -1.57189512    
  -48.7387619      -4.69004917      -20.0000000       2407.57104      -1.57189512    
  -48.7254105      -3.12169194      -20.0000000       2407.57104      -1.57189512    
  -47.2550507      -3.12222195      -20.0000000       2407.57104      -1.57189512    
  -54.5736809       4.04919481      -20.0000000       3930.14551      -1.59355867    
  -55.6295395       2.91055298      -20.0000000       3930.14551      -1.59355867    
  -56.8836594       3.56473303      -20.0000000       3930.14551      -1.59355867    
  -55.8850899       4.68635893      -20.0000000       3930.14551      -1.59355867    
  -48.7254105      -3.12169194      -20.0000000       3492.74634      -1.56996930    
  -50.1564102      -3.12996602      -20.0000000       3492.74634      -1.56996930    
  -50.2854195      -1.59545600      -20.0000000       3492.74634      -1.56996930    
  -48.7658615      -1.56390297      -20.0000000       3492.74634      -1.56996930    
  -50.2854195      -1.59545600      -20.0000000       1614.95605      -1.56862843    
  -51.8859215      -1.67511594      -20.0000000       1614.95605      -1.56862843    
  -51.7686501     -0.191007897      -20.0000000       1614.95605      -1.56862843    
  -50.2816200      -7.23225027E-02  -20.0000000       1614.95605      -1.56862843    
  -55.6295395       2.91055298      -20.0000000       798.664490       1.63776994    
  -54.5736809       4.04919481      -20.0000000       798.664490       1.63776994    
  -54.3531990       2.57653904      -20.0000000       798.664490       1.63776994    
  -54.3531990       2.57653904      -20.0000000       798.664490       1.63776994    
  -51.6464691       2.90894699      -20.0000000       2872.34570       1.57574308    
  -51.7500000       1.29565406      -20.0000000       2872.34570       1.57574308    
  -53.2043991       1.01675200      -20.0000000       2872.34570       1.57574308    
  -53.0367393       2.70281792      -20.0000000       2872.34570       1.57574308    
  -44.2742119      -6.25000000      -20.0000000       7948.21436       1.57168448    
  -45.7804108      -6.25000000      -20.0000000       7948.21436       1.57168448    
  -45.7679100      -4.68779421      -20.0000000       7948.21436       1.57168448    
  -44.2670212      -4.68766403      -20.0000000       7948.21436       1.57168448    
  -45.7679100      -4.68779421      -20.0000000       2234.57104      -1.57244134    
  -47.2626686      -4.68801212      -20.0000000       2234.57104      -1.57244134    
  -47.2550507      -3.12222195      -20.0000000       2234.57104      -1.57244134    
  -45.7611885      -3.12411094      -20.0000000       2234.57104      -1.57244134    
  -51.7500000       1.29565406      -20.0000000       1149.84021       1.57316053    
  -50.2459984       1.47492099      -20.0000000       1149.84021       1.57316053    
  -50.2816200      -7.23225027E-02  -20.0000000       1149.84021       1.57316053    
  -51.7686501     -0.191007897      -20.0000000       1149.84021       1.57316053    
  -47.2550507      -3.12222195      -20.0000000       3454.45728      -1.57079148    
  -48.7254105      -3.12169194      -20.0000000       3454.45728      -1.57079148    
  -48.7658615      -1.56390297      -20.0000000       3454.45728      -1.57079148    
  -47.2643318      -1.55986798      -20.0000000       3454.45728      -1.57079148    
  -48.7658615      -1.56390297      -20.0000000       1524.61609      -1.57001317    
  -50.2854195      -1.59545600      -20.0000000       1524.61609      -1.57001317    
  -50.2816200      -7.23225027E-02  -20.0000000       1524.61609      -1.57001317    
  -48.7753716      -1.42937005E-02  -20.0000000       1524.61609      -1.57001317    
  -54.5736809       4.04919481      -20.0000000       1884.24036       1.59172118    
  -53.0954399       4.36336088      -20.0000000       1884.24036       1.59172118    
  -53.0367393       2.70281792      -20.0000000       1884.24036       1.59172118    
  -54.3531990       2.57653904      -20.0000000       1884.24036       1.59172118    
  -54.6465797       5.53822613      -20.0000000       7448.41992      -1.58293176    
  -54.5736809       4.04919481      -20.0000000       7448.41992      -1.58293176    
  -55.8850899       4.68635893      -20.0000000       7448.41992      -1.58293176    
  -55.8850899       4.68635893      -20.0000000       7448.41992      -1.58293176    
  -44.2670212      -4.68766403      -20.0000000       8108.28467       1.57082987    
  -42.7620697      -4.68767691      -20.0000000       8108.28467       1.57082987    
  -42.7680206      -6.25000000      -20.0000000       8108.28467       1.57082987    
  -44.2742119      -6.25000000      -20.0000000       8108.28467       1.57082987    
  -44.2670212      -4.68766403      -20.0000000       2087.57690      -1.57186818    
  -45.7679100      -4.68779421      -20.0000000       2087.57690      -1.57186818    
  -45.7611885      -3.12411094      -20.0000000       2087.57690      -1.57186818    
  -44.2611694      -3.12488103      -20.0000000       2087.57690      -1.57186818    
  -45.7611885      -3.12411094      -20.0000000       3380.60010      -1.57108605    
  -47.2550507      -3.12222195      -20.0000000       3380.60010      -1.57108605    
  -47.2643318      -1.55986798      -20.0000000       3380.60010      -1.57108605    
  -45.7603798      -1.56126106      -20.0000000       3380.60010      -1.57108605    
  -50.2459984       1.47492099      -20.0000000       3285.27710       1.57327855    
  -51.7500000       1.29565406      -20.0000000       3285.27710       1.57327855    
  -51.6464691       2.90894699      -20.0000000       3285.27710       1.57327855    
  -50.2011604       3.04989505      -20.0000000       3285.27710       1.57327855    
  -54.6465797       5.53822613      -20.0000000       5326.66992      -1.58190405    
  -53.2416306       6.06926107      -20.0000000       5326.66992      -1.58190405    
  -53.0954399       4.36336088      -20.0000000       5326.66992      -1.58190405    
  -54.5736809       4.04919481      -20.0000000       5326.66992      -1.58190405    
  -47.2643318      -1.55986798      -20.0000000       1466.77625      -1.57073855    
  -48.7658615      -1.56390297      -20.0000000       1466.77625      -1.57073855    
  -48.7753716      -1.42937005E-02  -20.0000000       1466.77625      -1.57073855    
  -47.2657204       0.00000000      -20.0000000       1466.77625      -1.57073855    
  -48.7753716      -1.42937005E-02  -20.0000000       1346.97961       1.57194579    
  -50.2816200      -7.23225027E-02  -20.0000000       1346.97961       1.57194579    
  -50.2459984       1.47492099      -20.0000000       1346.97961       1.57194579    
  -48.7560692       1.53868604      -20.0000000       1346.97961       1.57194579    
  -51.6464691       2.90894699      -20.0000000       2618.81445       1.57973707    
  -53.0367393       2.70281792      -20.0000000       2618.81445       1.57973707    
  -53.0954399       4.36336088      -20.0000000       2618.81445       1.57973707    
  -51.6648903       4.56408405      -20.0000000       2618.81445       1.57973707    
  -41.2618294      -6.25000000      -20.0000000       8191.49756       1.56995630    
  -42.7680206      -6.25000000      -20.0000000       8191.49756       1.56995630    
  -42.7620697      -4.68767691      -20.0000000       8191.49756       1.56995630    
  -41.2566490      -4.68782711      -20.0000000       8191.49756       1.56995630    
  -44.2611694      -3.12488103      -20.0000000       1985.65808      -1.57048917    
  -42.7563400      -3.12513494      -20.0000000       1985.65808      -1.57048917    
  -42.7620697      -4.68767691      -20.0000000       1985.65808      -1.57048917    
  -44.2670212      -4.68766403      -20.0000000       1985.65808      -1.57048917    
  -44.2611694      -3.12488103      -20.0000000       3308.24390      -1.57098174    
  -45.7611885      -3.12411094      -20.0000000       3308.24390      -1.57098174    
  -45.7603798      -1.56126106      -20.0000000       3308.24390      -1.57098174    
  -44.2565308      -1.56226599      -20.0000000       3308.24390      -1.57098174    
  -45.7603798      -1.56126106      -20.0000000       1438.41760      -1.57102287    
  -47.2643318      -1.55986798      -20.0000000       1438.41760      -1.57102287    
  -47.2657204       0.00000000      -20.0000000       1438.41760      -1.57102287    
  -45.7582893       0.00000000      -20.0000000       1438.41760      -1.57102287    
  -47.2657204       0.00000000      -20.0000000       1410.29492       1.57127225    
  -48.7753716      -1.42937005E-02  -20.0000000       1410.29492       1.57127225    
  -48.7560692       1.53868604      -20.0000000       1410.29492       1.57127225    
  -47.2535896       1.55706894      -20.0000000       1410.29492       1.57127225    
  -48.7560692       1.53868604      -20.0000000       3429.85693       1.57180047    
  -50.2459984       1.47492099      -20.0000000       3429.85693       1.57180047    
  -50.2011604       3.04989505      -20.0000000       3429.85693       1.57180047    
  -48.7281189       3.10503101      -20.0000000       3429.85693       1.57180047    
  -50.2011604       3.04989505      -20.0000000       2733.40820       1.57484341    
  -51.6464691       2.90894699      -20.0000000       2733.40820       1.57484341    
  -51.6648903       4.56408405      -20.0000000       2733.40820       1.57484341    
  -50.2067184       4.64797401      -20.0000000       2733.40820       1.57484341    
  -51.6648903       4.56408405      -20.0000000       5703.44092      -1.57610941    
  -53.0954399       4.36336088      -20.0000000       5703.44092      -1.57610941    
  -53.2416306       6.06926107      -20.0000000       5703.44092      -1.57610941    
  -51.7500000       6.25000000      -20.0000000       5703.44092      -1.57610941    
  -39.7556496      -6.25000000      -20.0000000       8206.25586       1.56927776    
  -41.2618294      -6.25000000      -20.0000000       8206.25586       1.56927776    
  -41.2566490      -4.68782711      -20.0000000       8206.25586       1.56927776    
  -39.7507591      -4.68851089      -20.0000000       8206.25586       1.56927776    
  -41.2566490      -4.68782711      -20.0000000       1929.26416      -1.56885695    
  -42.7620697      -4.68767691      -20.0000000       1929.26416      -1.56885695    
  -42.7563400      -3.12513494      -20.0000000       1929.26416      -1.56885695    
  -41.2511406      -3.12541890      -20.0000000       1929.26416      -1.56885695    
  -44.2565308      -1.56226599      -20.0000000       3254.96802      -1.57063282    
  -42.7509499      -1.56253600      -20.0000000       3254.96802      -1.57063282    
  -42.7563400      -3.12513494      -20.0000000       3254.96802      -1.57063282    
  -44.2611694      -3.12488103      -20.0000000       3254.96802      -1.57063282    
  -44.2565308      -1.56226599      -20.0000000       1415.28857      -1.57099402    
  -45.7603798      -1.56126106      -20.0000000       1415.28857      -1.57099402    
  -45.7582893       0.00000000      -20.0000000       1415.28857      -1.57099402    
  -44.2515602       0.00000000      -20.0000000       1415.28857      -1.57099402    
  -45.7582893       0.00000000      -20.0000000       1417.29993       1.57101643    
  -47.2657204       0.00000000      -20.0000000       1417.29993       1.57101643    
  -47.2535896       1.55706894      -20.0000000       1417.29993       1.57101643    
  -45.7509003       1.56100297      -20.0000000       1417.29993       1.57101643    
  -47.2535896       1.55706894      -20.0000000       3422.62817       1.57099891    
  -48.7560692       1.53868604      -20.0000000       3422.62817       1.57099891    
  -48.7281189       3.10503101      -20.0000000       3422.62817       1.57099891    
  -47.2370110       3.11982203      -20.0000000       3422.62817       1.57099891    
  -48.7281189       3.10503101      -20.0000000       2589.07324       1.57180536    
  -50.2011604       3.04989505      -20.0000000       2589.07324       1.57180536    
  -50.2067184       4.64797401      -20.0000000       2589.07324       1.57180536    
  -48.7241211       4.67746210      -20.0000000       2589.07324       1.57180536    
  -50.2067184       4.64797401      -20.0000000       6270.60840      -1.57217228    
  -51.6648903       4.56408405      -20.0000000       6270.60840      -1.57217228    
  -51.7500000       6.25000000      -20.0000000       6270.60840      -1.57217228    
  -50.2455711       6.25000000      -20.0000000       6270.60840      -1.57217228    
  -38.2494698      -6.25000000      -20.0000000       8167.15869       1.56898689    
  -39.7556496      -6.25000000      -20.0000000       8167.15869       1.56898689    
  -39.7507591      -4.68851089      -20.0000000       8167.15869       1.56898689    
  -38.2446404      -4.68936491      -20.0000000       8167.15869       1.56898689    
  -39.7507591      -4.68851089      -20.0000000       1911.76672      -1.56761479    
  -41.2566490      -4.68782711      -20.0000000       1911.76672      -1.56761479    
  -41.2511406      -3.12541890      -20.0000000       1911.76672      -1.56761479    
  -39.7453995      -3.12673903      -20.0000000       1911.76672      -1.56761479    
  -41.2511406      -3.12541890      -20.0000000       3221.57202      -1.57021749    
  -42.7563400      -3.12513494      -20.0000000       3221.57202      -1.57021749    
  -42.7509499      -1.56253600      -20.0000000       3221.57202      -1.57021749    
  -41.2455711      -1.56282198      -20.0000000       3221.57202      -1.57021749    
  -44.2515602       0.00000000      -20.0000000       1398.76709      -1.57077384    
  -42.7457504       0.00000000      -20.0000000       1398.76709      -1.57077384    
  -42.7509499      -1.56253600      -20.0000000       1398.76709      -1.57077384    
  -44.2565308      -1.56226599      -20.0000000       1398.76709      -1.57077384    
  -44.2515602       0.00000000      -20.0000000       1403.98767       1.57104945    
  -45.7582893       0.00000000      -20.0000000       1403.98767       1.57104945    
  -45.7509003       1.56100297      -20.0000000       1403.98767       1.57104945    
  -44.2452011       1.56199801      -20.0000000       1403.98767       1.57104945    
  -45.7509003       1.56100297      -20.0000000       3364.72461       1.57072186    
  -47.2535896       1.55706894      -20.0000000       3364.72461       1.57072186    
  -47.2370110       3.11982203      -20.0000000       3364.72461       1.57072186    
  -45.7402802       3.12332392      -20.0000000       3364.72461       1.57072186    
  -47.2370110       3.11982203      -20.0000000       2392.48950       1.57006049    
  -48.7281189       3.10503101      -20.0000000       2392.48950       1.57006049    
  -48.7241211       4.67746210      -20.0000000       2392.48950       1.57006049    
  -47.2300911       4.68496799      -20.0000000       2392.48950       1.57006049    
  -48.7241211       4.67746210      -20.0000000       6850.75195      -1.57013428    
  -50.2067184       4.64797401      -20.0000000       6850.75195      -1.57013428    
  -50.2455711       6.25000000      -20.0000000       6850.75195      -1.57013428    
  -48.7411499       6.25000000      -20.0000000       6850.75195      -1.57013428    
  -36.7432899      -6.25000000      -20.0000000       8080.28760       1.56924939    
  -38.2494698      -6.25000000      -20.0000000       8080.28760       1.56924939    
  -38.2446404      -4.68936491      -20.0000000       8080.28760       1.56924939    
  -36.7384796      -4.68897390      -20.0000000       8080.28760       1.56924939    
  -38.2446404      -4.68936491      -20.0000000       1926.47449      -1.56732249    
  -39.7507591      -4.68851089      -20.0000000       1926.47449      -1.56732249    
  -39.7453995      -3.12673903      -20.0000000       1926.47449      -1.56732249    
  -38.2396507      -3.12933803      -20.0000000       1926.47449      -1.56732249    
  -39.7453995      -3.12673903      -20.0000000       3211.31006      -1.56991971    
  -41.2511406      -3.12541890      -20.0000000       3211.31006      -1.56991971    
  -41.2455711      -1.56282198      -20.0000000       3211.31006      -1.56991971    
  -39.7399902      -1.56351995      -20.0000000       3211.31006      -1.56991971    
  -41.2455711      -1.56282198      -20.0000000       1387.20557      -1.57049584    
  -42.7509499      -1.56253600      -20.0000000       1387.20557      -1.57049584    
  -42.7457504       0.00000000      -20.0000000       1387.20557      -1.57049584    
  -41.2401695       0.00000000      -20.0000000       1387.20557      -1.57049584    
  -44.2452011       1.56199801      -20.0000000       1397.68640       1.57124126    
  -42.7402611       1.56238496      -20.0000000       1397.68640       1.57124126    
  -42.7457504       0.00000000      -20.0000000       1397.68640       1.57124126    
  -44.2515602       0.00000000      -20.0000000       1397.68640       1.57124126    
  -44.2452011       1.56199801      -20.0000000       3303.29468       1.57083225    
  -45.7509003       1.56100297      -20.0000000       3303.29468       1.57083225    
  -45.7402802       3.12332392      -20.0000000       3303.29468       1.57083225    
  -44.2380295       3.12447906      -20.0000000       3303.29468       1.57083225    
  -45.7402802       3.12332392      -20.0000000       2217.50732       1.56957138    
  -47.2370110       3.11982203      -20.0000000       2217.50732       1.56957138    
  -47.2300911       4.68496799      -20.0000000       2217.50732       1.56957138    
  -45.7329903       4.68700409      -20.0000000       2217.50732       1.56957138    
  -47.2300911       4.68496799      -20.0000000       7344.75195      -1.56940460    
  -48.7241211       4.67746210      -20.0000000       7344.75195      -1.56940460    
  -48.7411499       6.25000000      -20.0000000       7344.75195      -1.56940460    
  -47.2367287       6.25000000      -20.0000000       7344.75195      -1.56940460    
  -35.2371101      -6.25000000      -20.0000000       7952.20605       1.57019424    
  -36.7432899      -6.25000000      -20.0000000       7952.20605       1.57019424    
  -36.7384796      -4.68897390      -20.0000000       7952.20605       1.57019424    
  -35.2325211      -4.68835878      -20.0000000       7952.20605       1.57019424    
  -36.7384796      -4.68897390      -20.0000000       1975.10120      -1.56834948    
  -38.2446404      -4.68936491      -20.0000000       1975.10120      -1.56834948    
  -38.2396507      -3.12933803      -20.0000000       1975.10120      -1.56834948    
  -36.7339096      -3.12783909      -20.0000000       1975.10120      -1.56834948    
  -38.2396507      -3.12933803      -20.0000000       3220.35742      -1.56989813    
  -39.7453995      -3.12673903      -20.0000000       3220.35742      -1.56989813    
  -39.7399902      -1.56351995      -20.0000000       3220.35742      -1.56989813    
  -38.2346497      -1.56438303      -20.0000000       3220.35742      -1.56989813    
  -39.7399902      -1.56351995      -20.0000000       1381.97510      -1.57029116    
  -41.2455711      -1.56282198      -20.0000000       1381.97510      -1.57029116    
  -41.2401695       0.00000000      -20.0000000       1381.97510      -1.57029116    