 VARIABLES="X" "Y" "Z" "abs(p) (Pa)" "angle(p) (rad)"
ZONE N=   3650,E =    3624, F=FEPOINT, ET=QUADRILATERAL
  -56.5164909      -2.47323704      -20.0000000       291.959717      -2.81357121    
  -55.4176407      -3.26747894      -20.0000000       291.959717      -2.81357121    
  -55.9264717      -4.64953518      -20.0000000       291.959717      -2.81357121    
  -56.9148483      -3.51935697      -20.0000000       291.959717      -2.81357121    
  -56.9148483      -3.51935697      -20.0000000       296.927246      -2.68519330    
  -57.6058807      -2.18402195      -20.0000000       296.927246      -2.68519330    
  -56.5164909      -2.47323704      -20.0000000       296.927246      -2.68519330    
  -56.5164909      -2.47323704      -20.0000000       296.927246      -2.68519330    
  -54.6953812      -5.51239681      -20.0000000       284.402679      -2.90348268    
  -55.9264717      -4.64953518      -20.0000000       284.402679      -2.90348268    
  -55.4176407      -3.26747894      -20.0000000       284.402679      -2.90348268    
  -54.2450790      -3.94889998      -20.0000000       284.402679      -2.90348268    
  -54.2450790      -3.94889998      -20.0000000       275.908661      -2.98224688    
  -52.9834785      -4.46340179      -20.0000000       275.908661      -2.98224688    
  -53.2955093      -6.05576801      -20.0000000       275.908661      -2.98224688    
  -54.6953812      -5.51239681      -20.0000000       275.908661      -2.98224688    
  -56.5223999      -1.11500299      -20.0000000       307.865204      -2.77217102    
  -56.5164909      -2.47323704      -20.0000000       307.865204      -2.77217102    
  -57.6058807      -2.18402195      -20.0000000       307.865204      -2.77217102    
  -57.9577713     -0.724482894      -20.0000000       307.865204      -2.77217102    
  -56.5164909      -2.47323704      -20.0000000       325.378021      -3.01517034    
  -56.5223999      -1.11500299      -20.0000000       325.378021      -3.01517034    
  -55.1657600      -1.76926601      -20.0000000       325.378021      -3.01517034    
  -55.4176407      -3.26747894      -20.0000000       325.378021      -3.01517034    
  -54.2450790      -3.94889998      -20.0000000       339.226807      -3.12274766    
  -55.4176407      -3.26747894      -20.0000000       339.226807      -3.12274766    
  -55.1657600      -1.76926601      -20.0000000       339.226807      -3.12274766    
  -53.8819199      -2.32836604      -20.0000000       339.226807      -3.12274766    
  -52.9834785      -4.46340179      -20.0000000       270.744385      -3.06221628    
  -51.6155815      -4.69134283      -20.0000000       270.744385      -3.06221628    
  -51.8049088      -6.24783087      -20.0000000       270.744385      -3.06221628    
  -53.2955093      -6.05576801      -20.0000000       270.744385      -3.06221628    
  -56.3964119      0.254809886      -20.0000000       314.479340      -2.80732298    
  -56.5223999      -1.11500299      -20.0000000       314.479340      -2.80732298    
  -57.9577713     -0.724482894      -20.0000000       314.479340      -2.80732298    
  -57.9511719      0.779103875      -20.0000000       314.479340      -2.80732298    
  -53.8819199      -2.32836604      -20.0000000       346.079498       3.09786654    
  -52.7235603      -2.92538095      -20.0000000       346.079498       3.09786654    
  -52.9834785      -4.46340179      -20.0000000       346.079498       3.09786654    
  -54.2450790      -3.94889998      -20.0000000       346.079498       3.09786654    
  -56.5223999      -1.11500299      -20.0000000       344.353638      -3.08188176    
  -56.3964119      0.254809886      -20.0000000       344.353638      -3.08188176    
  -54.8835487     -0.325594515      -20.0000000       344.353638      -3.08188176    
  -55.1657600      -1.76926601      -20.0000000       344.353638      -3.08188176    
  -50.2990494      -6.25000000      -20.0000000       272.841095      -3.13847256    
  -51.8049088      -6.24783087      -20.0000000       272.841095      -3.13847256    
  -51.6155815      -4.69134283      -20.0000000       272.841095      -3.13847256    
  -50.1911316      -4.70199823      -20.0000000       272.841095      -3.13847256    
  -53.8819199      -2.32836604      -20.0000000       372.759064       3.07998443    
  -55.1657600      -1.76926601      -20.0000000       372.759064       3.07998443    
  -54.8835487     -0.325594515      -20.0000000       372.759064       3.07998443    
  -53.3087082     -0.726661325      -20.0000000       372.759064       3.07998443    
  -52.7235603      -2.92538095      -20.0000000       351.248932       3.04990649    
  -51.4683685      -3.18431592      -20.0000000       351.248932       3.04990649    
  -51.6155815      -4.69134283      -20.0000000       351.248932       3.04990649    
  -52.9834785      -4.46340179      -20.0000000       351.248932       3.04990649    
  -56.1067696       1.60355306      -20.0000000       313.584015      -2.82579541    
  -56.3964119      0.254809886      -20.0000000       313.584015      -2.82579541    
  -57.9511719      0.779103875      -20.0000000       313.584015      -2.82579541    
  -57.5863686       2.23558092      -20.0000000       313.584015      -2.82579541    
  -56.3964119      0.254809886      -20.0000000       350.188171      -3.10763741    
  -56.1067696       1.60355306      -20.0000000       350.188171      -3.10763741    
  -54.6488190       1.11988902      -20.0000000       350.188171      -3.10763741    
  -54.8835487     -0.325594515      -20.0000000       350.188171      -3.10763741    
  -51.8859215      -1.67511594      -20.0000000       389.898041       3.01814055    
  -52.7235603      -2.92538095      -20.0000000       389.898041       3.01814055    
  -53.8819199      -2.32836604      -20.0000000       389.898041       3.01814055    
  -53.3087082     -0.726661325      -20.0000000       389.898041       3.01814055    
  -48.7928200      -6.25000000      -20.0000000       277.999512       3.08798051    
  -50.2990494      -6.25000000      -20.0000000       277.999512       3.08798051    
  -50.1911316      -4.70199823      -20.0000000       277.999512       3.08798051    
  -48.7387619      -4.69004917      -20.0000000       277.999512       3.08798051    
  -50.1911316      -4.70199823      -20.0000000       361.365845       3.00582933    
  -51.6155815      -4.69134283      -20.0000000       361.365845       3.00582933    
  -51.4683685      -3.18431592      -20.0000000       361.365845       3.00582933    
  -50.1564102      -3.12996602      -20.0000000       361.365845       3.00582933    
  -54.6488190       1.11988902      -20.0000000       384.860931       3.05239058    
  -53.2043991       1.01675200      -20.0000000       384.860931       3.05239058    
  -53.3087082     -0.726661325      -20.0000000       384.860931       3.05239058    
  -54.8835487     -0.325594515      -20.0000000       384.860931       3.05239058    
  -51.4683685      -3.18431592      -20.0000000       389.987915       2.99818516    
  -52.7235603      -2.92538095      -20.0000000       389.987915       2.99818516    
  -51.8859215      -1.67511594      -20.0000000       389.987915       2.99818516    
  -51.8859215      -1.67511594      -20.0000000       389.987915       2.99818516    
  -55.6295395       2.91055298      -20.0000000       305.308289      -2.83365536    
  -56.1067696       1.60355306      -20.0000000       305.308289      -2.83365536    
  -57.5863686       2.23558092      -20.0000000       305.308289      -2.83365536    
  -56.8836594       3.56473303      -20.0000000       305.308289      -2.83365536    
  -47.2866096      -6.25000000      -20.0000000       281.385071       3.05141020    
  -48.7928200      -6.25000000      -20.0000000       281.385071       3.05141020    
  -48.7387619      -4.69004917      -20.0000000       281.385071       3.05141020    
  -47.2626686      -4.68801212      -20.0000000       281.385071       3.05141020    
  -48.7387619      -4.69004917      -20.0000000       372.994934       2.97191763    
  -50.1911316      -4.70199823      -20.0000000       372.994934       2.97191763    
  -50.1564102      -3.12996602      -20.0000000       372.994934       2.97191763    
  -48.7254105      -3.12169194      -20.0000000       372.994934       2.97191763    
  -50.1564102      -3.12996602      -20.0000000       407.964966       2.96283293    
  -51.4683685      -3.18431592      -20.0000000       407.964966       2.96283293    
  -51.8859215      -1.67511594      -20.0000000       407.964966       2.96283293    
  -50.2854195      -1.59545600      -20.0000000       407.964966       2.96283293    
  -54.6488190       1.11988902      -20.0000000       343.387177      -3.10632873    
  -56.1067696       1.60355306      -20.0000000       343.387177      -3.10632873    
  -55.6295395       2.91055298      -20.0000000       343.387177      -3.10632873    
  -54.3531990       2.57653904      -20.0000000       343.387177      -3.10632873    
  -51.7686501     -0.191007897      -20.0000000       411.295807       2.98205900    
  -51.8859215      -1.67511594      -20.0000000       411.295807       2.98205900    
  -53.3087082     -0.726661325      -20.0000000       411.295807       2.98205900    
  -53.3087082     -0.726661325      -20.0000000       411.295807       2.98205900    
  -51.7686501     -0.191007897      -20.0000000       410.657837       2.98642564    
  -53.3087082     -0.726661325      -20.0000000       410.657837       2.98642564    
  -53.2043991       1.01675200      -20.0000000       410.657837       2.98642564    
  -51.7500000       1.29565406      -20.0000000       410.657837       2.98642564    
  -53.0367393       2.70281792      -20.0000000       375.404266       3.06082559    
  -53.2043991       1.01675200      -20.0000000       375.404266       3.06082559    
  -54.6488190       1.11988902      -20.0000000       375.404266       3.06082559    
  -54.3531990       2.57653904      -20.0000000       375.404266       3.06082559    
  -45.7804108      -6.25000000      -20.0000000       283.189972       3.02842784    
  -47.2866096      -6.25000000      -20.0000000       283.189972       3.02842784    
  -47.2626686      -4.68801212      -20.0000000       283.189972       3.02842784    
  -45.7679100      -4.68779421      -20.0000000       283.189972       3.02842784    
  -47.2626686      -4.68801212      -20.0000000       381.050812       2.95039344    
  -48.7387619      -4.69004917      -20.0000000       381.050812       2.95039344    
  -48.7254105      -3.12169194      -20.0000000       381.050812       2.95039344    
  -47.2550507      -3.12222195      -20.0000000       381.050812       2.95039344    
  -54.5736809       4.04919481      -20.0000000       291.479126      -2.86178303    
  -55.6295395       2.91055298      -20.0000000       291.479126      -2.86178303    
  -56.8836594       3.56473303      -20.0000000       291.479126      -2.86178303    
  -55.8850899       4.68635893      -20.0000000       291.479126      -2.86178303    
  -48.7254105      -3.12169194      -20.0000000       422.271057       2.93455505    
  -50.1564102      -3.12996602      -20.0000000       422.271057       2.93455505    
  -50.2854195      -1.59545600      -20.0000000       422.271057       2.93455505    
  -48.7658615      -1.56390297      -20.0000000       422.271057       2.93455505    
  -50.2854195      -1.59545600      -20.0000000       428.002106       2.94811916    
  -51.8859215      -1.67511594      -20.0000000       428.002106       2.94811916    
  -51.7686501     -0.191007897      -20.0000000       428.002106       2.94811916    
  -50.2816200      -7.23225027E-02  -20.0000000       428.002106       2.94811916    
  -55.6295395       2.91055298      -20.0000000       326.517609      -3.08110666    
  -54.5736809       4.04919481      -20.0000000       326.517609      -3.08110666    
  -54.3531990       2.57653904      -20.0000000       326.517609      -3.08110666    
  -54.3531990       2.57653904      -20.0000000       326.517609      -3.08110666    
  -51.6464691       2.90894699      -20.0000000       396.571564       2.99892712    
  -51.7500000       1.29565406      -20.0000000       396.571564       2.99892712    
  -53.2043991       1.01675200      -20.0000000       396.571564       2.99892712    
  -53.0367393       2.70281792      -20.0000000       396.571564       2.99892712    
  -44.2742119      -6.25000000      -20.0000000       284.051819       3.01537013    
  -45.7804108      -6.25000000      -20.0000000       284.051819       3.01537013    
  -45.7679100      -4.68779421      -20.0000000       284.051819       3.01537013    
  -44.2670212      -4.68766403      -20.0000000       284.051819       3.01537013    
  -45.7679100      -4.68779421      -20.0000000       386.620667       2.93778610    
  -47.2626686      -4.68801212      -20.0000000       386.620667       2.93778610    
  -47.2550507      -3.12222195      -20.0000000       386.620667       2.93778610    
  -45.7611885      -3.12411094      -20.0000000       386.620667       2.93778610    
  -51.7500000       1.29565406      -20.0000000       430.185883       2.94559002    
  -50.2459984       1.47492099      -20.0000000       430.185883       2.94559002    
  -50.2816200      -7.23225027E-02  -20.0000000       430.185883       2.94559002    
  -51.7686501     -0.191007897      -20.0000000       430.185883       2.94559002    
  -47.2550507      -3.12222195      -20.0000000       432.577606       2.91756988    
  -48.7254105      -3.12169194      -20.0000000       432.577606       2.91756988    
  -48.7658615      -1.56390297      -20.0000000       432.577606       2.91756988    
  -47.2643318      -1.55986798      -20.0000000       432.577606       2.91756988    
  -48.7658615      -1.56390297      -20.0000000       444.130493       2.92111754    
  -50.2854195      -1.59545600      -20.0000000       444.130493       2.92111754    
  -50.2816200      -7.23225027E-02  -20.0000000       444.130493       2.92111754    
  -48.7753716      -1.42937005E-02  -20.0000000       444.130493       2.92111754    
  -54.5736809       4.04919481      -20.0000000       340.508850       3.11951041    
  -53.0954399       4.36336088      -20.0000000       340.508850       3.11951041    
  -53.0367393       2.70281792      -20.0000000       340.508850       3.11951041    
  -54.3531990       2.57653904      -20.0000000       340.508850       3.11951041    
  -54.6465797       5.53822613      -20.0000000       269.608551      -2.82023382    
  -54.5736809       4.04919481      -20.0000000       269.608551      -2.82023382    
  -55.8850899       4.68635893      -20.0000000       269.608551      -2.82023382    
  -55.8850899       4.68635893      -20.0000000       269.608551      -2.82023382    
  -44.2670212      -4.68766403      -20.0000000       284.278625       3.01005554    
  -42.7620697      -4.68767691      -20.0000000       284.278625       3.01005554    
  -42.7680206      -6.25000000      -20.0000000       284.278625       3.01005554    
  -44.2742119      -6.25000000      -20.0000000       284.278625       3.01005554    
  -44.2670212      -4.68766403      -20.0000000       390.525360       2.93197155    
  -45.7679100      -4.68779421      -20.0000000       390.525360       2.93197155    
  -45.7611885      -3.12411094      -20.0000000       390.525360       2.93197155    
  -44.2611694      -3.12488103      -20.0000000       390.525360       2.93197155    
  -45.7611885      -3.12411094      -20.0000000       440.022461       2.90835476    
  -47.2550507      -3.12222195      -20.0000000       440.022461       2.90835476    
  -47.2643318      -1.55986798      -20.0000000       440.022461       2.90835476    
  -45.7603798      -1.56126106      -20.0000000       440.022461       2.90835476    
  -50.2459984       1.47492099      -20.0000000       411.630920       2.95963883    
  -51.7500000       1.29565406      -20.0000000       411.630920       2.95963883    
  -51.6464691       2.90894699      -20.0000000       411.630920       2.95963883    
  -50.2011604       3.04989505      -20.0000000       411.630920       2.95963883    
  -54.6465797       5.53822613      -20.0000000       275.273621      -2.97557855    
  -53.2416306       6.06926107      -20.0000000       275.273621      -2.97557855    
  -53.0954399       4.36336088      -20.0000000       275.273621      -2.97557855    
  -54.5736809       4.04919481      -20.0000000       275.273621      -2.97557855    
  -47.2643318      -1.55986798      -20.0000000       455.727234       2.90542459    
  -48.7658615      -1.56390297      -20.0000000       455.727234       2.90542459    
  -48.7753716      -1.42937005E-02  -20.0000000       455.727234       2.90542459    
  -47.2657204       0.00000000      -20.0000000       455.727234       2.90542459    
  -48.7753716      -1.42937005E-02  -20.0000000       444.767548       2.92058086    
  -50.2816200      -7.23225027E-02  -20.0000000       444.767548       2.92058086    
  -50.2459984       1.47492099      -20.0000000       444.767548       2.92058086    
  -48.7560692       1.53868604      -20.0000000       444.767548       2.92058086    
  -51.6464691       2.90894699      -20.0000000       355.697449       3.04790187    
  -53.0367393       2.70281792      -20.0000000       355.697449       3.04790187    
  -53.0954399       4.36336088      -20.0000000       355.697449       3.04790187    
  -51.6648903       4.56408405      -20.0000000       355.697449       3.04790187    
  -41.2618294      -6.25000000      -20.0000000       284.103943       3.01114535    
  -42.7680206      -6.25000000      -20.0000000       284.103943       3.01114535    
  -42.7620697      -4.68767691      -20.0000000       284.103943       3.01114535    
  -41.2566490      -4.68782711      -20.0000000       284.103943       3.01114535    
  -44.2611694      -3.12488103      -20.0000000       393.242035       2.93151617    
  -42.7563400      -3.12513494      -20.0000000       393.242035       2.93151617    
  -42.7620697      -4.68767691      -20.0000000       393.242035       2.93151617    
  -44.2670212      -4.68766403      -20.0000000       393.242035       2.93151617    
  -44.2611694      -3.12488103      -20.0000000       445.470367       2.90498996    
  -45.7611885      -3.12411094      -20.0000000       445.470367       2.90498996    
  -45.7603798      -1.56126106      -20.0000000       445.470367       2.90498996    
  -44.2565308      -1.56226599      -20.0000000       445.470367       2.90498996    
  -45.7603798      -1.56126106      -20.0000000       464.155914       2.89736247    
  -47.2643318      -1.55986798      -20.0000000       464.155914       2.89736247    
  -47.2657204       0.00000000      -20.0000000       464.155914       2.89736247    
  -45.7582893       0.00000000      -20.0000000       464.155914       2.89736247    
  -47.2657204       0.00000000      -20.0000000       455.842468       2.90530825    
  -48.7753716      -1.42937005E-02  -20.0000000       455.842468       2.90530825    
  -48.7560692       1.53868604      -20.0000000       455.842468       2.90530825    
  -47.2535896       1.55706894      -20.0000000       455.842468       2.90530825    
  -48.7560692       1.53868604      -20.0000000       423.335449       2.93373442    
  -50.2459984       1.47492099      -20.0000000       423.335449       2.93373442    
  -50.2011604       3.04989505      -20.0000000       423.335449       2.93373442    
  -48.7281189       3.10503101      -20.0000000       423.335449       2.93373442    
  -50.2011604       3.04989505      -20.0000000       366.101868       3.00209165    
  -51.6464691       2.90894699      -20.0000000       366.101868       3.00209165    
  -51.6648903       4.56408405      -20.0000000       366.101868       3.00209165    
  -50.2067184       4.64797401      -20.0000000       366.101868       3.00209165    
  -51.6648903       4.56408405      -20.0000000       274.107086      -3.07154655    
  -53.0954399       4.36336088      -20.0000000       274.107086      -3.07154655    
  -53.2416306       6.06926107      -20.0000000       274.107086      -3.07154655    
  -51.7500000       6.25000000      -20.0000000       274.107086      -3.07154655    
  -39.7556496      -6.25000000      -20.0000000       283.767548       3.01740170    
  -41.2618294      -6.25000000      -20.0000000       283.767548       3.01740170    
  -41.2566490      -4.68782711      -20.0000000       283.767548       3.01740170    
  -39.7507591      -4.68851089      -20.0000000       283.767548       3.01740170    
  -41.2566490      -4.68782711      -20.0000000       395.113556       2.93541837    
  -42.7620697      -4.68767691      -20.0000000       395.113556       2.93541837    
  -42.7563400      -3.12513494      -20.0000000       395.113556       2.93541837    
  -41.2511406      -3.12541890      -20.0000000       395.113556       2.93541837    
  -44.2565308      -1.56226599      -20.0000000       449.415955       2.90622592    
  -42.7509499      -1.56253600      -20.0000000       449.415955       2.90622592    
  -42.7563400      -3.12513494      -20.0000000       449.415955       2.90622592    
  -44.2611694      -3.12488103      -20.0000000       449.415955       2.90622592    
  -44.2565308      -1.56226599      -20.0000000       470.339142       2.89489460    
  -45.7603798      -1.56126106      -20.0000000       470.339142       2.89489460    
  -45.7582893       0.00000000      -20.0000000       470.339142       2.89489460    
  -44.2515602       0.00000000      -20.0000000       470.339142       2.89489460    
  -45.7582893       0.00000000      -20.0000000       464.157684       2.89733434    
  -47.2657204       0.00000000      -20.0000000       464.157684       2.89733434    
  -47.2535896       1.55706894      -20.0000000       464.157684       2.89733434    
  -45.7509003       1.56100297      -20.0000000       464.157684       2.89733434    
  -47.2535896       1.55706894      -20.0000000       432.724213       2.91734982    
  -48.7560692       1.53868604      -20.0000000       432.724213       2.91734982    
  -48.7281189       3.10503101      -20.0000000       432.724213       2.91734982    
  -47.2370110       3.11982203      -20.0000000       432.724213       2.91734982    
  -48.7281189       3.10503101      -20.0000000       374.422760       2.97070098    
  -50.2011604       3.04989505      -20.0000000       374.422760       2.97070098    
  -50.2067184       4.64797401      -20.0000000       374.422760       2.97070098    
  -48.7241211       4.67746210      -20.0000000       374.422760       2.97070098    
  -50.2067184       4.64797401      -20.0000000       276.093475       3.13728857    
  -51.6648903       4.56408405      -20.0000000       276.093475       3.13728857    
  -51.7500000       6.25000000      -20.0000000       276.093475       3.13728857    
  -50.2455711       6.25000000      -20.0000000       276.093475       3.13728857    
  -38.2494698      -6.25000000      -20.0000000       283.398224       3.02795744    
  -39.7556496      -6.25000000      -20.0000000       283.398224       3.02795744    
  -39.7507591      -4.68851089      -20.0000000       283.398224       3.02795744    
  -38.2446404      -4.68936491      -20.0000000       283.398224       3.02795744    
  -39.7507591      -4.68851089      -20.0000000       396.389099       2.94286489    
  -41.2566490      -4.68782711      -20.0000000       396.389099       2.94286489    
  -41.2511406      -3.12541890      -20.0000000       396.389099       2.94286489    
  -39.7453995      -3.12673903      -20.0000000       396.389099       2.94286489    
  -41.2511406      -3.12541890      -20.0000000       452.340912       2.91115451    
  -42.7563400      -3.12513494      -20.0000000       452.340912       2.91115451    
  -42.7509499      -1.56253600      -20.0000000       452.340912       2.91115451    
  -41.2455711      -1.56282198      -20.0000000       452.340912       2.91115451    
  -44.2515602       0.00000000      -20.0000000       474.903107       2.89675832    
  -42.7457504       0.00000000      -20.0000000       474.903107       2.89675832    
  -42.7509499      -1.56253600      -20.0000000       474.903107       2.89675832    
  -44.2565308      -1.56226599      -20.0000000       474.903107       2.89675832    
  -44.2515602       0.00000000      -20.0000000       470.335571       2.89489031    
  -45.7582893       0.00000000      -20.0000000       470.335571       2.89489031    
  -45.7509003       1.56100297      -20.0000000       470.335571       2.89489031    
  -44.2452011       1.56199801      -20.0000000       470.335571       2.89489031    
  -45.7509003       1.56100297      -20.0000000       439.971100       2.90828323    
  -47.2535896       1.55706894      -20.0000000       439.971100       2.90828323    
  -47.2370110       3.11982203      -20.0000000       439.971100       2.90828323    
  -45.7402802       3.12332392      -20.0000000       439.971100       2.90828323    
  -47.2370110       3.11982203      -20.0000000       381.293335       2.94994926    
  -48.7281189       3.10503101      -20.0000000       381.293335       2.94994926    
  -48.7241211       4.67746210      -20.0000000       381.293335       2.94994926    
  -47.2300911       4.68496799      -20.0000000       381.293335       2.94994926    
  -48.7241211       4.67746210      -20.0000000       279.268372       3.08495307    
  -50.2067184       4.64797401      -20.0000000       279.268372       3.08495307    
  -50.2455711       6.25000000      -20.0000000       279.268372       3.08495307    
  -48.7411499       6.25000000      -20.0000000       279.268372       3.08495307    
  -36.7432899      -6.25000000      -20.0000000       283.105286       3.04206276    
  -38.2494698      -6.25000000      -20.0000000       283.105286       3.04206276    
  -38.2446404      -4.68936491      -20.0000000       283.105286       3.04206276    
  -36.7384796      -4.68897390      -20.0000000       283.105286       3.04206276    
  -38.2446404      -4.68936491      -20.0000000       397.329956       2.95324612    
  -39.7507591      -4.68851089      -20.0000000       397.329956       2.95324612    
  -39.7453995      -3.12673903      -20.0000000       397.329956       2.95324612    
  -38.2396507      -3.12933803      -20.0000000       397.329956       2.95324612    
  -39.7453995      -3.12673903      -20.0000000       454.495239       2.91907191    
  -41.2511406      -3.12541890      -20.0000000       454.495239       2.91907191    
  -41.2455711      -1.56282198      -20.0000000       454.495239       2.91907191    
  -39.7399902      -1.56351995      -20.0000000       454.495239       2.91907191    
  -41.2455711      -1.56282198      -20.0000000       478.330170       2.90209222    
  -42.7509499      -1.56253600      -20.0000000       478.330170       2.90209222    
  -42.7457504       0.00000000      -20.0000000       478.330170       2.90209222    
  -41.2401695       0.00000000      -20.0000000       478.330170       2.90209222    
  -44.2452011       1.56199801      -20.0000000       474.875854       2.89678073    
  -42.7402611       1.56238496      -20.0000000       474.875854       2.89678073    
  -42.7457504       0.00000000      -20.0000000       474.875854       2.89678073    
  -44.2515602       0.00000000      -20.0000000       474.875854       2.89678073    
  -44.2452011       1.56199801      -20.0000000       445.368683       2.90497494    
  -45.7509003       1.56100297      -20.0000000       445.368683       2.90497494    
  -45.7402802       3.12332392      -20.0000000       445.368683       2.90497494    
  -44.2380295       3.12447906      -20.0000000       445.368683       2.90497494    
  -45.7402802       3.12332392      -20.0000000       386.615448       2.93758845    
  -47.2370110       3.11982203      -20.0000000       386.615448       2.93758845    
  -47.2300911       4.68496799      -20.0000000       386.615448       2.93758845    
  -45.7329903       4.68700409      -20.0000000       386.615448       2.93758845    
  -47.2300911       4.68496799      -20.0000000       281.597168       3.05026436    
  -48.7241211       4.67746210      -20.0000000       281.597168       3.05026436    
  -48.7411499       6.25000000      -20.0000000       281.597168       3.05026436    
  -47.2367287       6.25000000      -20.0000000       281.597168       3.05026436    
  -35.2371101      -6.25000000      -20.0000000       283.054260       3.05903649    
  -36.7432899      -6.25000000      -20.0000000       283.054260       3.05903649    
  -36.7384796      -4.68897390      -20.0000000       283.054260       3.05903649    
  -35.2325211      -4.68835878      -20.0000000       283.054260       3.05903649    
  -36.7384796      -4.68897390      -20.0000000       398.102112       2.96604729    
  -38.2446404      -4.68936491      -20.0000000       398.102112       2.96604729    
  -38.2396507      -3.12933803      -20.0000000       398.102112       2.96604729    
  -36.7339096      -3.12783909      -20.0000000       398.102112       2.96604729    
  -38.2396507      -3.12933803      -20.0000000       456.186249       2.92949009    
  -39.7453995      -3.12673903      -20.0000000       456.186249       2.92949009    
  -39.7399902      -1.56351995      -20.0000000       456.186249       2.92949009    
  -38.2346497      -1.56438303      -20.0000000       456.186249       2.92949009    
  -39.7399902      -1.56351995      -20.0000000       480.850342       2.91022587    
  -41.2455711      -1.56282198      -20.0000000       480.850342       2.91022587    
  -41.2401695       0.00000000      -20.0000000       480.850342       2.91022587    