 VARIABLES="X" "Y" "Z" "abs(p) (Pa)" "angle(p) (rad)"
ZONE N=   3650,E =    3624, F=FEPOINT, ET=QUADRILATERAL
  -56.5164909      -2.47323704      -20.0000000       643.033752       1.68558323    
  -55.4176407      -3.26747894      -20.0000000       643.033752       1.68558323    
  -55.9264717      -4.64953518      -20.0000000       643.033752       1.68558323    
  -56.9148483      -3.51935697      -20.0000000       643.033752       1.68558323    
  -56.9148483      -3.51935697      -20.0000000       518.178528       1.68338251    
  -57.6058807      -2.18402195      -20.0000000       518.178528       1.68338251    
  -56.5164909      -2.47323704      -20.0000000       518.178528       1.68338251    
  -56.5164909      -2.47323704      -20.0000000       518.178528       1.68338251    
  -54.6953812      -5.51239681      -20.0000000       806.121826       1.68505430    
  -55.9264717      -4.64953518      -20.0000000       806.121826       1.68505430    
  -55.4176407      -3.26747894      -20.0000000       806.121826       1.68505430    
  -54.2450790      -3.94889998      -20.0000000       806.121826       1.68505430    
  -54.2450790      -3.94889998      -20.0000000       948.277161       1.68351018    
  -52.9834785      -4.46340179      -20.0000000       948.277161       1.68351018    
  -53.2955093      -6.05576801      -20.0000000       948.277161       1.68351018    
  -54.6953812      -5.51239681      -20.0000000       948.277161       1.68351018    
  -56.5223999      -1.11500299      -20.0000000       285.165466       1.68965089    
  -56.5164909      -2.47323704      -20.0000000       285.165466       1.68965089    
  -57.6058807      -2.18402195      -20.0000000       285.165466       1.68965089    
  -57.9577713     -0.724482894      -20.0000000       285.165466       1.68965089    
  -56.5164909      -2.47323704      -20.0000000       348.883820       1.69663489    
  -56.5223999      -1.11500299      -20.0000000       348.883820       1.69663489    
  -55.1657600      -1.76926601      -20.0000000       348.883820       1.69663489    
  -55.4176407      -3.26747894      -20.0000000       348.883820       1.69663489    
  -54.2450790      -3.94889998      -20.0000000       453.493439       1.69714677    
  -55.4176407      -3.26747894      -20.0000000       453.493439       1.69714677    
  -55.1657600      -1.76926601      -20.0000000       453.493439       1.69714677    
  -53.8819199      -2.32836604      -20.0000000       453.493439       1.69714677    
  -52.9834785      -4.46340179      -20.0000000       1053.24561       1.68137991    
  -51.6155815      -4.69134283      -20.0000000       1053.24561       1.68137991    
  -51.8049088      -6.24783087      -20.0000000       1053.24561       1.68137991    
  -53.2955093      -6.05576801      -20.0000000       1053.24561       1.68137991    
  -56.3964119      0.254809886      -20.0000000       31.8292904       1.73158848    
  -56.5223999      -1.11500299      -20.0000000       31.8292904       1.73158848    
  -57.9577713     -0.724482894      -20.0000000       31.8292904       1.73158848    
  -57.9511719      0.779103875      -20.0000000       31.8292904       1.73158848    
  -53.8819199      -2.32836604      -20.0000000       557.163086       1.69578683    
  -52.7235603      -2.92538095      -20.0000000       557.163086       1.69578683    
  -52.9834785      -4.46340179      -20.0000000       557.163086       1.69578683    
  -54.2450790      -3.94889998      -20.0000000       557.163086       1.69578683    
  -56.5223999      -1.11500299      -20.0000000       115.074730       1.70690680    
  -56.3964119      0.254809886      -20.0000000       115.074730       1.70690680    
  -54.8835487     -0.325594515      -20.0000000       115.074730       1.70690680    
  -55.1657600      -1.76926601      -20.0000000       115.074730       1.70690680    
  -50.2990494      -6.25000000      -20.0000000       1110.69592       1.67940044    
  -51.8049088      -6.24783087      -20.0000000       1110.69592       1.67940044    
  -51.6155815      -4.69134283      -20.0000000       1110.69592       1.67940044    
  -50.1911316      -4.70199823      -20.0000000       1110.69592       1.67940044    
  -53.8819199      -2.32836604      -20.0000000       195.344849       1.70454252    
  -55.1657600      -1.76926601      -20.0000000       195.344849       1.70454252    
  -54.8835487     -0.325594515      -20.0000000       195.344849       1.70454252    
  -53.3087082     -0.726661325      -20.0000000       195.344849       1.70454252    
  -52.7235603      -2.92538095      -20.0000000       639.439636       1.69376123    
  -51.4683685      -3.18431592      -20.0000000       639.439636       1.69376123    
  -51.6155815      -4.69134283      -20.0000000       639.439636       1.69376123    
  -52.9834785      -4.46340179      -20.0000000       639.439636       1.69376123    
  -56.1067696       1.60355306      -20.0000000       215.762283      -1.46196771    
  -56.3964119      0.254809886      -20.0000000       215.762283      -1.46196771    
  -57.9511719      0.779103875      -20.0000000       215.762283      -1.46196771    
  -57.5863686       2.23558092      -20.0000000       215.762283      -1.46196771    
  -56.3964119      0.254809886      -20.0000000       100.891998      -1.45692742    
  -56.1067696       1.60355306      -20.0000000       100.891998      -1.45692742    
  -54.6488190       1.11988902      -20.0000000       100.891998      -1.45692742    
  -54.8835487     -0.325594515      -20.0000000       100.891998      -1.45692742    
  -51.8859215      -1.67511594      -20.0000000       289.397400       1.70226121    
  -52.7235603      -2.92538095      -20.0000000       289.397400       1.70226121    
  -53.8819199      -2.32836604      -20.0000000       289.397400       1.70226121    
  -53.3087082     -0.726661325      -20.0000000       289.397400       1.70226121    
  -48.7928200      -6.25000000      -20.0000000       1141.09155       1.67794693    
  -50.2990494      -6.25000000      -20.0000000       1141.09155       1.67794693    
  -50.1911316      -4.70199823      -20.0000000       1141.09155       1.67794693    
  -48.7387619      -4.69004917      -20.0000000       1141.09155       1.67794693    
  -50.1911316      -4.70199823      -20.0000000       674.437866       1.69210136    
  -51.6155815      -4.69134283      -20.0000000       674.437866       1.69210136    
  -51.4683685      -3.18431592      -20.0000000       674.437866       1.69210136    
  -50.1564102      -3.12996602      -20.0000000       674.437866       1.69210136    
  -54.6488190       1.11988902      -20.0000000       36.2258301      -1.47216213    
  -53.2043991       1.01675200      -20.0000000       36.2258301      -1.47216213    
  -53.3087082     -0.726661325      -20.0000000       36.2258301      -1.47216213    
  -54.8835487     -0.325594515      -20.0000000       36.2258301      -1.47216213    
  -51.4683685      -3.18431592      -20.0000000       410.328461       1.69920480    
  -52.7235603      -2.92538095      -20.0000000       410.328461       1.69920480    
  -51.8859215      -1.67511594      -20.0000000       410.328461       1.69920480    
  -51.8859215      -1.67511594      -20.0000000       410.328461       1.69920480    
  -55.6295395       2.91055298      -20.0000000       459.364227      -1.45925105    
  -56.1067696       1.60355306      -20.0000000       459.364227      -1.45925105    
  -57.5863686       2.23558092      -20.0000000       459.364227      -1.45925105    
  -56.8836594       3.56473303      -20.0000000       459.364227      -1.45925105    
  -47.2866096      -6.25000000      -20.0000000       1164.11365       1.67699683    
  -48.7928200      -6.25000000      -20.0000000       1164.11365       1.67699683    
  -48.7387619      -4.69004917      -20.0000000       1164.11365       1.67699683    
  -47.2626686      -4.68801212      -20.0000000       1164.11365       1.67699683    
  -48.7387619      -4.69004917      -20.0000000       684.092224       1.69088209    
  -50.1911316      -4.70199823      -20.0000000       684.092224       1.69088209    
  -50.1564102      -3.12996602      -20.0000000       684.092224       1.69088209    
  -48.7254105      -3.12169194      -20.0000000       684.092224       1.69088209    
  -50.1564102      -3.12996602      -20.0000000       377.710175       1.69908023    
  -51.4683685      -3.18431592      -20.0000000       377.710175       1.69908023    
  -51.8859215      -1.67511594      -20.0000000       377.710175       1.69908023    
  -50.2854195      -1.59545600      -20.0000000       377.710175       1.69908023    
  -54.6488190       1.11988902      -20.0000000       319.987183      -1.44991326    
  -56.1067696       1.60355306      -20.0000000       319.987183      -1.44991326    
  -55.6295395       2.91055298      -20.0000000       319.987183      -1.44991326    
  -54.3531990       2.57653904      -20.0000000       319.987183      -1.44991326    
  -51.7686501     -0.191007897      -20.0000000       132.706726       1.70780623    
  -51.8859215      -1.67511594      -20.0000000       132.706726       1.70780623    
  -53.3087082     -0.726661325      -20.0000000       132.706726       1.70780623    
  -53.3087082     -0.726661325      -20.0000000       132.706726       1.70780623    
  -51.7686501     -0.191007897      -20.0000000       48.6314964      -1.46344769    
  -53.3087082     -0.726661325      -20.0000000       48.6314964      -1.46344769    
  -53.2043991       1.01675200      -20.0000000       48.6314964      -1.46344769    
  -51.7500000       1.29565406      -20.0000000       48.6314964      -1.46344769    
  -53.0367393       2.70281792      -20.0000000       280.373932      -1.44740844    
  -53.2043991       1.01675200      -20.0000000       280.373932      -1.44740844    
  -54.6488190       1.11988902      -20.0000000       280.373932      -1.44740844    
  -54.3531990       2.57653904      -20.0000000       280.373932      -1.44740844    
  -45.7804108      -6.25000000      -20.0000000       1180.13342       1.67655241    
  -47.2866096      -6.25000000      -20.0000000       1180.13342       1.67655241    
  -47.2626686      -4.68801212      -20.0000000       1180.13342       1.67655241    
  -45.7679100      -4.68779421      -20.0000000       1180.13342       1.67655241    
  -47.2626686      -4.68801212      -20.0000000       696.831543       1.68976355    
  -48.7387619      -4.69004917      -20.0000000       696.831543       1.68976355    
  -48.7254105      -3.12169194      -20.0000000       696.831543       1.68976355    
  -47.2550507      -3.12222195      -20.0000000       696.831543       1.68976355    
  -54.5736809       4.04919481      -20.0000000       691.582581      -1.45910060    
  -55.6295395       2.91055298      -20.0000000       691.582581      -1.45910060    
  -56.8836594       3.56473303      -20.0000000       691.582581      -1.45910060    
  -55.8850899       4.68635893      -20.0000000       691.582581      -1.45910060    
  -48.7254105      -3.12169194      -20.0000000       381.391052       1.69775724    
  -50.1564102      -3.12996602      -20.0000000       381.391052       1.69775724    
  -50.2854195      -1.59545600      -20.0000000       381.391052       1.69775724    
  -48.7658615      -1.56390297      -20.0000000       381.391052       1.69775724    
  -50.2854195      -1.59545600      -20.0000000       138.147263       1.70704889    
  -51.8859215      -1.67511594      -20.0000000       138.147263       1.70704889    
  -51.7686501     -0.191007897      -20.0000000       138.147263       1.70704889    
  -50.2816200      -7.23225027E-02  -20.0000000       138.147263       1.70704889    
  -55.6295395       2.91055298      -20.0000000       517.736877      -1.45094311    
  -54.5736809       4.04919481      -20.0000000       517.736877      -1.45094311    
  -54.3531990       2.57653904      -20.0000000       517.736877      -1.45094311    
  -54.3531990       2.57653904      -20.0000000       517.736877      -1.45094311    
  -51.6464691       2.90894699      -20.0000000       303.332123      -1.44728935    
  -51.7500000       1.29565406      -20.0000000       303.332123      -1.44728935    
  -53.2043991       1.01675200      -20.0000000       303.332123      -1.44728935    
  -53.0367393       2.70281792      -20.0000000       303.332123      -1.44728935    
  -44.2742119      -6.25000000      -20.0000000       1189.62830       1.67651224    
  -45.7804108      -6.25000000      -20.0000000       1189.62830       1.67651224    
  -45.7679100      -4.68779421      -20.0000000       1189.62830       1.67651224    
  -44.2670212      -4.68766403      -20.0000000       1189.62830       1.67651224    
  -45.7679100      -4.68779421      -20.0000000       707.710876       1.68905842    
  -47.2626686      -4.68801212      -20.0000000       707.710876       1.68905842    
  -47.2550507      -3.12222195      -20.0000000       707.710876       1.68905842    
  -45.7611885      -3.12411094      -20.0000000       707.710876       1.68905842    
  -51.7500000       1.29565406      -20.0000000       95.0627670      -1.45443273    
  -50.2459984       1.47492099      -20.0000000       95.0627670      -1.45443273    
  -50.2816200      -7.23225027E-02  -20.0000000       95.0627670      -1.45443273    
  -51.7686501     -0.191007897      -20.0000000       95.0627670      -1.45443273    
  -47.2550507      -3.12222195      -20.0000000       388.010132       1.69657052    
  -48.7254105      -3.12169194      -20.0000000       388.010132       1.69657052    
  -48.7658615      -1.56390297      -20.0000000       388.010132       1.69657052    
  -47.2643318      -1.55986798      -20.0000000       388.010132       1.69657052    
  -48.7658615      -1.56390297      -20.0000000       128.346054       1.70635426    
  -50.2854195      -1.59545600      -20.0000000       128.346054       1.70635426    
  -50.2816200      -7.23225027E-02  -20.0000000       128.346054       1.70635426    
  -48.7753716      -1.42937005E-02  -20.0000000       128.346054       1.70635426    
  -54.5736809       4.04919481      -20.0000000       557.632935      -1.45004523    
  -53.0954399       4.36336088      -20.0000000       557.632935      -1.45004523    
  -53.0367393       2.70281792      -20.0000000       557.632935      -1.45004523    
  -54.3531990       2.57653904      -20.0000000       557.632935      -1.45004523    
  -54.6465797       5.53822613      -20.0000000       917.921204      -1.46252811    
  -54.5736809       4.04919481      -20.0000000       917.921204      -1.46252811    
  -55.8850899       4.68635893      -20.0000000       917.921204      -1.46252811    
  -55.8850899       4.68635893      -20.0000000       917.921204      -1.46252811    
  -44.2670212      -4.68766403      -20.0000000       1193.85229       1.67677593    
  -42.7620697      -4.68767691      -20.0000000       1193.85229       1.67677593    
  -42.7680206      -6.25000000      -20.0000000       1193.85229       1.67677593    
  -44.2742119      -6.25000000      -20.0000000       1193.85229       1.67677593    
  -44.2670212      -4.68766403      -20.0000000       715.210999       1.68878877    
  -45.7679100      -4.68779421      -20.0000000       715.210999       1.68878877    
  -45.7611885      -3.12411094      -20.0000000       715.210999       1.68878877    
  -44.2611694      -3.12488103      -20.0000000       715.210999       1.68878877    
  -45.7611885      -3.12411094      -20.0000000       394.566101       1.69573975    
  -47.2550507      -3.12222195      -20.0000000       394.566101       1.69573975    
  -47.2643318      -1.55986798      -20.0000000       394.566101       1.69573975    
  -45.7603798      -1.56126106      -20.0000000       394.566101       1.69573975    
  -50.2459984       1.47492099      -20.0000000       342.525513      -1.44839156    
  -51.7500000       1.29565406      -20.0000000       342.525513      -1.44839156    
  -51.6464691       2.90894699      -20.0000000       342.525513      -1.44839156    
  -50.2011604       3.04989505      -20.0000000       342.525513      -1.44839156    
  -54.6465797       5.53822613      -20.0000000       941.444946      -1.46036315    
  -53.2416306       6.06926107      -20.0000000       941.444946      -1.46036315    
  -53.0954399       4.36336088      -20.0000000       941.444946      -1.46036315    
  -54.5736809       4.04919481      -20.0000000       941.444946      -1.46036315    
  -47.2643318      -1.55986798      -20.0000000       126.355293       1.70522392    
  -48.7658615      -1.56390297      -20.0000000       126.355293       1.70522392    
  -48.7753716      -1.42937005E-02  -20.0000000       126.355293       1.70522392    
  -47.2657204       0.00000000      -20.0000000       126.355293       1.70522392    
  -48.7753716      -1.42937005E-02  -20.0000000       113.352180      -1.45402443    
  -50.2816200      -7.23225027E-02  -20.0000000       113.352180      -1.45402443    
  -50.2459984       1.47492099      -20.0000000       113.352180      -1.45402443    
  -48.7560692       1.53868604      -20.0000000       113.352180      -1.45402443    
  -51.6464691       2.90894699      -20.0000000       597.751709      -1.45061147    
  -53.0367393       2.70281792      -20.0000000       597.751709      -1.45061147    
  -53.0954399       4.36336088      -20.0000000       597.751709      -1.45061147    
  -51.6648903       4.56408405      -20.0000000       597.751709      -1.45061147    
  -41.2618294      -6.25000000      -20.0000000       1194.55286       1.67723429    
  -42.7680206      -6.25000000      -20.0000000       1194.55286       1.67723429    
  -42.7620697      -4.68767691      -20.0000000       1194.55286       1.67723429    
  -41.2566490      -4.68782711      -20.0000000       1194.55286       1.67723429    
  -44.2611694      -3.12488103      -20.0000000       719.515808       1.68886888    
  -42.7563400      -3.12513494      -20.0000000       719.515808       1.68886888    
  -42.7620697      -4.68767691      -20.0000000       719.515808       1.68886888    
  -44.2670212      -4.68766403      -20.0000000       719.515808       1.68886888    
  -44.2611694      -3.12488103      -20.0000000       399.390869       1.69532549    
  -45.7611885      -3.12411094      -20.0000000       399.390869       1.69532549    
  -45.7603798      -1.56126106      -20.0000000       399.390869       1.69532549    
  -44.2565308      -1.56226599      -20.0000000       399.390869       1.69532549    
  -45.7603798      -1.56126106      -20.0000000       127.818558       1.70423627    
  -47.2643318      -1.55986798      -20.0000000       127.818558       1.70423627    
  -47.2657204       0.00000000      -20.0000000       127.818558       1.70423627    
  -45.7582893       0.00000000      -20.0000000       127.818558       1.70423627    
  -47.2657204       0.00000000      -20.0000000       121.978943      -1.45442116    
  -48.7753716      -1.42937005E-02  -20.0000000       121.978943      -1.45442116    
  -48.7560692       1.53868604      -20.0000000       121.978943      -1.45442116    
  -47.2535896       1.55706894      -20.0000000       121.978943      -1.45442116    
  -48.7560692       1.53868604      -20.0000000       369.735229      -1.44975984    
  -50.2459984       1.47492099      -20.0000000       369.735229      -1.44975984    
  -50.2011604       3.04989505      -20.0000000       369.735229      -1.44975984    
  -48.7281189       3.10503101      -20.0000000       369.735229      -1.44975984    
  -50.2011604       3.04989505      -20.0000000       641.004639      -1.45229447    
  -51.6464691       2.90894699      -20.0000000       641.004639      -1.45229447    
  -51.6648903       4.56408405      -20.0000000       641.004639      -1.45229447    
  -50.2067184       4.64797401      -20.0000000       641.004639      -1.45229447    
  -51.6648903       4.56408405      -20.0000000       1031.33069      -1.46200860    
  -53.0954399       4.36336088      -20.0000000       1031.33069      -1.46200860    
  -53.2416306       6.06926107      -20.0000000       1031.33069      -1.46200860    
  -51.7500000       6.25000000      -20.0000000       1031.33069      -1.46200860    
  -39.7556496      -6.25000000      -20.0000000       1192.92871       1.67781937    
  -41.2618294      -6.25000000      -20.0000000       1192.92871       1.67781937    
  -41.2566490      -4.68782711      -20.0000000       1192.92871       1.67781937    
  -39.7507591      -4.68851089      -20.0000000       1192.92871       1.67781937    
  -41.2566490      -4.68782711      -20.0000000       721.441833       1.68920827    
  -42.7620697      -4.68767691      -20.0000000       721.441833       1.68920827    
  -42.7563400      -3.12513494      -20.0000000       721.441833       1.68920827    
  -41.2511406      -3.12541890      -20.0000000       721.441833       1.68920827    
  -44.2565308      -1.56226599      -20.0000000       402.339325       1.69529235    
  -42.7509499      -1.56253600      -20.0000000       402.339325       1.69529235    
  -42.7563400      -3.12513494      -20.0000000       402.339325       1.69529235    
  -44.2611694      -3.12488103      -20.0000000       402.339325       1.69529235    
  -44.2565308      -1.56226599      -20.0000000       129.485748       1.70361578    
  -45.7603798      -1.56126106      -20.0000000       129.485748       1.70361578    
  -45.7582893       0.00000000      -20.0000000       129.485748       1.70361578    
  -44.2515602       0.00000000      -20.0000000       129.485748       1.70361578    
  -45.7582893       0.00000000      -20.0000000       125.203766      -1.45473194    
  -47.2657204       0.00000000      -20.0000000       125.203766      -1.45473194    
  -47.2535896       1.55706894      -20.0000000       125.203766      -1.45473194    
  -45.7509003       1.56100297      -20.0000000       125.203766      -1.45473194    
  -47.2535896       1.55706894      -20.0000000       383.898224      -1.45082879    
  -48.7560692       1.53868604      -20.0000000       383.898224      -1.45082879    
  -48.7281189       3.10503101      -20.0000000       383.898224      -1.45082879    
  -47.2370110       3.11982203      -20.0000000       383.898224      -1.45082879    
  -48.7281189       3.10503101      -20.0000000       672.844421      -1.45395136    
  -50.2011604       3.04989505      -20.0000000       672.844421      -1.45395136    
  -50.2067184       4.64797401      -20.0000000       672.844421      -1.45395136    
  -48.7241211       4.67746210      -20.0000000       672.844421      -1.45395136    
  -50.2067184       4.64797401      -20.0000000       1092.33032      -1.46402252    
  -51.6648903       4.56408405      -20.0000000       1092.33032      -1.46402252    
  -51.7500000       6.25000000      -20.0000000       1092.33032      -1.46402252    
  -50.2455711       6.25000000      -20.0000000       1092.33032      -1.46402252    
  -38.2494698      -6.25000000      -20.0000000       1190.09851       1.67846441    
  -39.7556496      -6.25000000      -20.0000000       1190.09851       1.67846441    
  -39.7507591      -4.68851089      -20.0000000       1190.09851       1.67846441    
  -38.2446404      -4.68936491      -20.0000000       1190.09851       1.67846441    
  -39.7507591      -4.68851089      -20.0000000       721.877258       1.68970978    
  -41.2566490      -4.68782711      -20.0000000       721.877258       1.68970978    
  -41.2511406      -3.12541890      -20.0000000       721.877258       1.68970978    
  -39.7453995      -3.12673903      -20.0000000       721.877258       1.68970978    
  -41.2511406      -3.12541890      -20.0000000       403.942749       1.69551992    
  -42.7563400      -3.12513494      -20.0000000       403.942749       1.69551992    
  -42.7509499      -1.56253600      -20.0000000       403.942749       1.69551992    
  -41.2455711      -1.56282198      -20.0000000       403.942749       1.69551992    
  -44.2515602       0.00000000      -20.0000000       130.559753       1.70342553    
  -42.7457504       0.00000000      -20.0000000       130.559753       1.70342553    
  -42.7509499      -1.56253600      -20.0000000       130.559753       1.70342553    
  -44.2565308      -1.56226599      -20.0000000       130.559753       1.70342553    
  -44.2515602       0.00000000      -20.0000000       126.767250      -1.45484674    
  -45.7582893       0.00000000      -20.0000000       126.767250      -1.45484674    
  -45.7509003       1.56100297      -20.0000000       126.767250      -1.45484674    
  -44.2452011       1.56199801      -20.0000000       126.767250      -1.45484674    
  -45.7509003       1.56100297      -20.0000000       391.712830      -1.45146394    
  -47.2535896       1.55706894      -20.0000000       391.712830      -1.45146394    
  -47.2370110       3.11982203      -20.0000000       391.712830      -1.45146394    
  -45.7402802       3.12332392      -20.0000000       391.712830      -1.45146394    
  -47.2370110       3.11982203      -20.0000000       692.639038      -1.45510161    
  -48.7281189       3.10503101      -20.0000000       692.639038      -1.45510161    
  -48.7241211       4.67746210      -20.0000000       692.639038      -1.45510161    
  -47.2300911       4.68496799      -20.0000000       692.639038      -1.45510161    
  -48.7241211       4.67746210      -20.0000000       1132.78137      -1.46565998    
  -50.2067184       4.64797401      -20.0000000       1132.78137      -1.46565998    
  -50.2455711       6.25000000      -20.0000000       1132.78137      -1.46565998    
  -48.7411499       6.25000000      -20.0000000       1132.78137      -1.46565998    
  -36.7432899      -6.25000000      -20.0000000       1186.54688       1.67913735    
  -38.2494698      -6.25000000      -20.0000000       1186.54688       1.67913735    
  -38.2446404      -4.68936491      -20.0000000       1186.54688       1.67913735    
  -36.7384796      -4.68897390      -20.0000000       1186.54688       1.67913735    
  -38.2446404      -4.68936491      -20.0000000       721.506897       1.69030404    
  -39.7507591      -4.68851089      -20.0000000       721.506897       1.69030404    
  -39.7453995      -3.12673903      -20.0000000       721.506897       1.69030404    
  -38.2396507      -3.12933803      -20.0000000       721.506897       1.69030404    
  -39.7453995      -3.12673903      -20.0000000       404.627716       1.69595194    
  -41.2511406      -3.12541890      -20.0000000       404.627716       1.69595194    
  -41.2455711      -1.56282198      -20.0000000       404.627716       1.69595194    
  -39.7399902      -1.56351995      -20.0000000       404.627716       1.69595194    
  -41.2455711      -1.56282198      -20.0000000       131.159622       1.70355678    
  -42.7509499      -1.56253600      -20.0000000       131.159622       1.70355678    
  -42.7457504       0.00000000      -20.0000000       131.159622       1.70355678    
  -41.2401695       0.00000000      -20.0000000       131.159622       1.70355678    
  -44.2452011       1.56199801      -20.0000000       127.517220      -1.45458949    
  -42.7402611       1.56238496      -20.0000000       127.517220      -1.45458949    
  -42.7457504       0.00000000      -20.0000000       127.517220      -1.45458949    
  -44.2515602       0.00000000      -20.0000000       127.517220      -1.45458949    
  -44.2452011       1.56199801      -20.0000000       396.330811      -1.45170116    
  -45.7509003       1.56100297      -20.0000000       396.330811      -1.45170116    
  -45.7402802       3.12332392      -20.0000000       396.330811      -1.45170116    
  -44.2380295       3.12447906      -20.0000000       396.330811      -1.45170116    
  -45.7402802       3.12332392      -20.0000000       704.692688      -1.45571685    
  -47.2370110       3.11982203      -20.0000000       704.692688      -1.45571685    
  -47.2300911       4.68496799      -20.0000000       704.692688      -1.45571685    
  -45.7329903       4.68700409      -20.0000000       704.692688      -1.45571685    
  -47.2300911       4.68496799      -20.0000000       1160.07275      -1.46662223    
  -48.7241211       4.67746210      -20.0000000       1160.07275      -1.46662223    
  -48.7411499       6.25000000      -20.0000000       1160.07275      -1.46662223    
  -47.2367287       6.25000000      -20.0000000       1160.07275      -1.46662223    
  -35.2371101      -6.25000000      -20.0000000       1182.77832       1.67980468    
  -36.7432899      -6.25000000      -20.0000000       1182.77832       1.67980468    
  -36.7384796      -4.68897390      -20.0000000       1182.77832       1.67980468    
  -35.2325211      -4.68835878      -20.0000000       1182.77832       1.67980468    
  -36.7384796      -4.68897390      -20.0000000       720.242615       1.69096208    
  -38.2446404      -4.68936491      -20.0000000       720.242615       1.69096208    
  -38.2396507      -3.12933803      -20.0000000       720.242615       1.69096208    
  -36.7339096      -3.12783909      -20.0000000       720.242615       1.69096208    
  -38.2396507      -3.12933803      -20.0000000       404.836426       1.69649410    
  -39.7453995      -3.12673903      -20.0000000       404.836426       1.69649410    
  -39.7399902      -1.56351995      -20.0000000       404.836426       1.69649410    
  -38.2346497      -1.56438303      -20.0000000       404.836426       1.69649410    
  -39.7399902      -1.56351995      -20.0000000       131.493256       1.70384920    
  -41.2455711      -1.56282198      -20.0000000       131.493256       1.70384920    
  -41.2401695       0.00000000      -20.0000000       131.493256       1.70384920    