 VARIABLES="X" "Y" "Z" "abs(p) (Pa)" "angle(p) (rad)"
ZONE N=   3650,E =    3624, F=FEPOINT, ET=QUADRILATERAL
  -56.5164909      -2.47323704      -20.0000000       9391.00000       1.57057953    
  -55.4176407      -3.26747894      -20.0000000       9391.00000       1.57057953    
  -55.9264717      -4.64953518      -20.0000000       9391.00000       1.57057953    
  -56.9148483      -3.51935697      -20.0000000       9391.00000       1.57057953    
  -56.9148483      -3.51935697      -20.0000000       10115.2334       1.57064617    
  -57.6058807      -2.18402195      -20.0000000       10115.2334       1.57064617    
  -56.5164909      -2.47323704      -20.0000000       10115.2334       1.57064617    
  -56.5164909      -2.47323704      -20.0000000       10115.2334       1.57064617    
  -54.6953812      -5.51239681      -20.0000000       10469.5195       1.57053173    
  -55.9264717      -4.64953518      -20.0000000       10469.5195       1.57053173    
  -55.4176407      -3.26747894      -20.0000000       10469.5195       1.57053173    
  -54.2450790      -3.94889998      -20.0000000       10469.5195       1.57053173    
  -54.2450790      -3.94889998      -20.0000000       12156.7168       1.57050645    
  -52.9834785      -4.46340179      -20.0000000       12156.7168       1.57050645    
  -53.2955093      -6.05576801      -20.0000000       12156.7168       1.57050645    
  -54.6953812      -5.51239681      -20.0000000       12156.7168       1.57050645    
  -56.5223999      -1.11500299      -20.0000000       3852.65796       1.57057774    
  -56.5164909      -2.47323704      -20.0000000       3852.65796       1.57057774    
  -57.6058807      -2.18402195      -20.0000000       3852.65796       1.57057774    
  -57.9577713     -0.724482894      -20.0000000       3852.65796       1.57057774    
  -56.5164909      -2.47323704      -20.0000000       127.128098      -1.56149709    
  -56.5223999      -1.11500299      -20.0000000       127.128098      -1.56149709    
  -55.1657600      -1.76926601      -20.0000000       127.128098      -1.56149709    
  -55.4176407      -3.26747894      -20.0000000       127.128098      -1.56149709    
  -54.2450790      -3.94889998      -20.0000000       2494.86572      -1.57011187    
  -55.4176407      -3.26747894      -20.0000000       2494.86572      -1.57011187    
  -55.1657600      -1.76926601      -20.0000000       2494.86572      -1.57011187    
  -53.8819199      -2.32836604      -20.0000000       2494.86572      -1.57011187    
  -52.9834785      -4.46340179      -20.0000000       13894.2646       1.57049549    
  -51.6155815      -4.69134283      -20.0000000       13894.2646       1.57049549    
  -51.8049088      -6.24783087      -20.0000000       13894.2646       1.57049549    
  -53.2955093      -6.05576801      -20.0000000       13894.2646       1.57049549    
  -56.3964119      0.254809886      -20.0000000       166.564651       1.57015538    
  -56.5223999      -1.11500299      -20.0000000       166.564651       1.57015538    
  -57.9577713     -0.724482894      -20.0000000       166.564651       1.57015538    
  -57.9511719      0.779103875      -20.0000000       166.564651       1.57015538    
  -53.8819199      -2.32836604      -20.0000000       3766.44556      -1.57018948    
  -52.7235603      -2.92538095      -20.0000000       3766.44556      -1.57018948    
  -52.9834785      -4.46340179      -20.0000000       3766.44556      -1.57018948    
  -54.2450790      -3.94889998      -20.0000000       3766.44556      -1.57018948    
  -56.5223999      -1.11500299      -20.0000000       775.952393      -1.57027400    
  -56.3964119      0.254809886      -20.0000000       775.952393      -1.57027400    
  -54.8835487     -0.325594515      -20.0000000       775.952393      -1.57027400    
  -55.1657600      -1.76926601      -20.0000000       775.952393      -1.57027400    
  -50.2990494      -6.25000000      -20.0000000       14825.1211       1.57048357    
  -51.8049088      -6.24783087      -20.0000000       14825.1211       1.57048357    
  -51.6155815      -4.69134283      -20.0000000       14825.1211       1.57048357    
  -50.1911316      -4.70199823      -20.0000000       14825.1211       1.57048357    
  -53.8819199      -2.32836604      -20.0000000       2838.24805      -1.57052243    
  -55.1657600      -1.76926601      -20.0000000       2838.24805      -1.57052243    
  -54.8835487     -0.325594515      -20.0000000       2838.24805      -1.57052243    
  -53.3087082     -0.726661325      -20.0000000       2838.24805      -1.57052243    
  -52.7235603      -2.92538095      -20.0000000       4165.44873      -1.57012045    
  -51.4683685      -3.18431592      -20.0000000       4165.44873      -1.57012045    
  -51.6155815      -4.69134283      -20.0000000       4165.44873      -1.57012045    
  -52.9834785      -4.46340179      -20.0000000       4165.44873      -1.57012045    
  -56.1067696       1.60355306      -20.0000000       2568.11816      -1.57103741    
  -56.3964119      0.254809886      -20.0000000       2568.11816      -1.57103741    
  -57.9511719      0.779103875      -20.0000000       2568.11816      -1.57103741    
  -57.5863686       2.23558092      -20.0000000       2568.11816      -1.57103741    
  -56.3964119      0.254809886      -20.0000000       827.972839       1.57121670    
  -56.1067696       1.60355306      -20.0000000       827.972839       1.57121670    
  -54.6488190       1.11988902      -20.0000000       827.972839       1.57121670    
  -54.8835487     -0.325594515      -20.0000000       827.972839       1.57121670    
  -51.8859215      -1.67511594      -20.0000000       5047.53174      -1.57054329    
  -52.7235603      -2.92538095      -20.0000000       5047.53174      -1.57054329    
  -53.8819199      -2.32836604      -20.0000000       5047.53174      -1.57054329    
  -53.3087082     -0.726661325      -20.0000000       5047.53174      -1.57054329    
  -48.7928200      -6.25000000      -20.0000000       15393.7598       1.57047725    
  -50.2990494      -6.25000000      -20.0000000       15393.7598       1.57047725    
  -50.1911316      -4.70199823      -20.0000000       15393.7598       1.57047725    
  -48.7387619      -4.69004917      -20.0000000       15393.7598       1.57047725    
  -50.1911316      -4.70199823      -20.0000000       4438.81104      -1.57008708    
  -51.6155815      -4.69134283      -20.0000000       4438.81104      -1.57008708    
  -51.4683685      -3.18431592      -20.0000000       4438.81104      -1.57008708    
  -50.1564102      -3.12996602      -20.0000000       4438.81104      -1.57008708    
  -54.6488190       1.11988902      -20.0000000       767.904358       1.57098770    
  -53.2043991       1.01675200      -20.0000000       767.904358       1.57098770    
  -53.3087082     -0.726661325      -20.0000000       767.904358       1.57098770    
  -54.8835487     -0.325594515      -20.0000000       767.904358       1.57098770    
  -51.4683685      -3.18431592      -20.0000000       6487.79932      -1.57050395    
  -52.7235603      -2.92538095      -20.0000000       6487.79932      -1.57050395    
  -51.8859215      -1.67511594      -20.0000000       6487.79932      -1.57050395    
  -51.8859215      -1.67511594      -20.0000000       6487.79932      -1.57050395    
  -55.6295395       2.91055298      -20.0000000       5652.25586      -1.57104218    
  -56.1067696       1.60355306      -20.0000000       5652.25586      -1.57104218    
  -57.5863686       2.23558092      -20.0000000       5652.25586      -1.57104218    
  -56.8836594       3.56473303      -20.0000000       5652.25586      -1.57104218    
  -47.2866096      -6.25000000      -20.0000000       16147.2383       1.57048345    
  -48.7928200      -6.25000000      -20.0000000       16147.2383       1.57048345    
  -48.7387619      -4.69004917      -20.0000000       16147.2383       1.57048345    
  -47.2626686      -4.68801212      -20.0000000       16147.2383       1.57048345    
  -48.7387619      -4.69004917      -20.0000000       4594.47412      -1.57007277    
  -50.1911316      -4.70199823      -20.0000000       4594.47412      -1.57007277    
  -50.1564102      -3.12996602      -20.0000000       4594.47412      -1.57007277    
  -48.7254105      -3.12169194      -20.0000000       4594.47412      -1.57007277    
  -50.1564102      -3.12996602      -20.0000000       6712.45654      -1.57051897    
  -51.4683685      -3.18431592      -20.0000000       6712.45654      -1.57051897    
  -51.8859215      -1.67511594      -20.0000000       6712.45654      -1.57051897    
  -50.2854195      -1.59545600      -20.0000000       6712.45654      -1.57051897    
  -54.6488190       1.11988902      -20.0000000       2050.49829       1.57135582    
  -56.1067696       1.60355306      -20.0000000       2050.49829       1.57135582    
  -55.6295395       2.91055298      -20.0000000       2050.49829       1.57135582    
  -54.3531990       2.57653904      -20.0000000       2050.49829       1.57135582    
  -51.7686501     -0.191007897      -20.0000000       2800.73096      -1.57057667    
  -51.8859215      -1.67511594      -20.0000000       2800.73096      -1.57057667    
  -53.3087082     -0.726661325      -20.0000000       2800.73096      -1.57057667    
  -53.3087082     -0.726661325      -20.0000000       2800.73096      -1.57057667    
  -51.7686501     -0.191007897      -20.0000000       1226.20728       1.57098043    
  -53.3087082     -0.726661325      -20.0000000       1226.20728       1.57098043    
  -53.2043991       1.01675200      -20.0000000       1226.20728       1.57098043    
  -51.7500000       1.29565406      -20.0000000       1226.20728       1.57098043    
  -53.0367393       2.70281792      -20.0000000       4298.26367       1.57106400    
  -53.2043991       1.01675200      -20.0000000       4298.26367       1.57106400    
  -54.6488190       1.11988902      -20.0000000       4298.26367       1.57106400    
  -54.3531990       2.57653904      -20.0000000       4298.26367       1.57106400    
  -45.7804108      -6.25000000      -20.0000000       16857.0586       1.57049596    
  -47.2866096      -6.25000000      -20.0000000       16857.0586       1.57049596    
  -47.2626686      -4.68801212      -20.0000000       16857.0586       1.57049596    
  -45.7679100      -4.68779421      -20.0000000       16857.0586       1.57049596    
  -47.2626686      -4.68801212      -20.0000000       4327.40820      -1.57000327    
  -48.7387619      -4.69004917      -20.0000000       4327.40820      -1.57000327    
  -48.7254105      -3.12169194      -20.0000000       4327.40820      -1.57000327    
  -47.2550507      -3.12222195      -20.0000000       4327.40820      -1.57000327    
  -54.5736809       4.04919481      -20.0000000       8976.36719      -1.57104743    
  -55.6295395       2.91055298      -20.0000000       8976.36719      -1.57104743    
  -56.8836594       3.56473303      -20.0000000       8976.36719      -1.57104743    
  -55.8850899       4.68635893      -20.0000000       8976.36719      -1.57104743    
  -48.7254105      -3.12169194      -20.0000000       6833.24414      -1.57050657    
  -50.1564102      -3.12996602      -20.0000000       6833.24414      -1.57050657    
  -50.2854195      -1.59545600      -20.0000000       6833.24414      -1.57050657    
  -48.7658615      -1.56390297      -20.0000000       6833.24414      -1.57050657    
  -50.2854195      -1.59545600      -20.0000000       3186.13428      -1.57057714    
  -51.8859215      -1.67511594      -20.0000000       3186.13428      -1.57057714    
  -51.7686501     -0.191007897      -20.0000000       3186.13428      -1.57057714    
  -50.2816200      -7.23225027E-02  -20.0000000       3186.13428      -1.57057714    
  -55.6295395       2.91055298      -20.0000000       1013.45166       1.57266879    
  -54.5736809       4.04919481      -20.0000000       1013.45166       1.57266879    
  -54.3531990       2.57653904      -20.0000000       1013.45166       1.57266879    
  -54.3531990       2.57653904      -20.0000000       1013.45166       1.57266879    
  -51.6464691       2.90894699      -20.0000000       5600.42676       1.57104361    
  -51.7500000       1.29565406      -20.0000000       5600.42676       1.57104361    
  -53.2043991       1.01675200      -20.0000000       5600.42676       1.57104361    
  -53.0367393       2.70281792      -20.0000000       5600.42676       1.57104361    
  -44.2742119      -6.25000000      -20.0000000       17417.7617       1.57051110    
  -45.7804108      -6.25000000      -20.0000000       17417.7617       1.57051110    
  -45.7679100      -4.68779421      -20.0000000       17417.7617       1.57051110    
  -44.2670212      -4.68766403      -20.0000000       17417.7617       1.57051110    
  -45.7679100      -4.68779421      -20.0000000       3960.47827      -1.56992853    
  -47.2626686      -4.68801212      -20.0000000       3960.47827      -1.56992853    
  -47.2550507      -3.12222195      -20.0000000       3960.47827      -1.56992853    
  -45.7611885      -3.12411094      -20.0000000       3960.47827      -1.56992853    
  -51.7500000       1.29565406      -20.0000000       2277.82251       1.57100713    
  -50.2459984       1.47492099      -20.0000000       2277.82251       1.57100713    
  -50.2816200      -7.23225027E-02  -20.0000000       2277.82251       1.57100713    
  -51.7686501     -0.191007897      -20.0000000       2277.82251       1.57100713    
  -47.2550507      -3.12222195      -20.0000000       6756.26953      -1.57049251    
  -48.7254105      -3.12169194      -20.0000000       6756.26953      -1.57049251    
  -48.7658615      -1.56390297      -20.0000000       6756.26953      -1.57049251    
  -47.2643318      -1.55986798      -20.0000000       6756.26953      -1.57049251    
  -48.7658615      -1.56390297      -20.0000000       3015.57886      -1.57056737    
  -50.2854195      -1.59545600      -20.0000000       3015.57886      -1.57056737    
  -50.2816200      -7.23225027E-02  -20.0000000       3015.57886      -1.57056737    
  -48.7753716      -1.42937005E-02  -20.0000000       3015.57886      -1.57056737    
  -54.5736809       4.04919481      -20.0000000       3248.82324       1.57148361    
  -53.0954399       4.36336088      -20.0000000       3248.82324       1.57148361    
  -53.0367393       2.70281792      -20.0000000       3248.82324       1.57148361    
  -54.3531990       2.57653904      -20.0000000       3248.82324       1.57148361    
  -54.6465797       5.53822613      -20.0000000       16464.5488      -1.57098520    
  -54.5736809       4.04919481      -20.0000000       16464.5488      -1.57098520    
  -55.8850899       4.68635893      -20.0000000       16464.5488      -1.57098520    
  -55.8850899       4.68635893      -20.0000000       16464.5488      -1.57098520    
  -44.2670212      -4.68766403      -20.0000000       17815.5859       1.57052648    
  -42.7620697      -4.68767691      -20.0000000       17815.5859       1.57052648    
  -42.7680206      -6.25000000      -20.0000000       17815.5859       1.57052648    
  -44.2742119      -6.25000000      -20.0000000       17815.5859       1.57052648    
  -44.2670212      -4.68766403      -20.0000000       3629.72021      -1.56987536    
  -45.7679100      -4.68779421      -20.0000000       3629.72021      -1.56987536    
  -45.7611885      -3.12411094      -20.0000000       3629.72021      -1.56987536    
  -44.2611694      -3.12488103      -20.0000000       3629.72021      -1.56987536    
  -45.7611885      -3.12411094      -20.0000000       6595.85010      -1.57048404    
  -47.2550507      -3.12222195      -20.0000000       6595.85010      -1.57048404    
  -47.2643318      -1.55986798      -20.0000000       6595.85010      -1.57048404    
  -45.7603798      -1.56126106      -20.0000000       6595.85010      -1.57048404    
  -50.2459984       1.47492099      -20.0000000       6433.58105       1.57105958    
  -51.7500000       1.29565406      -20.0000000       6433.58105       1.57105958    
  -51.6464691       2.90894699      -20.0000000       6433.58105       1.57105958    
  -50.2011604       3.04989505      -20.0000000       6433.58105       1.57105958    
  -54.6465797       5.53822613      -20.0000000       12039.5400      -1.57108593    
  -53.2416306       6.06926107      -20.0000000       12039.5400      -1.57108593    
  -53.0954399       4.36336088      -20.0000000       12039.5400      -1.57108593    
  -54.5736809       4.04919481      -20.0000000       12039.5400      -1.57108593    
  -47.2643318      -1.55986798      -20.0000000       2900.60449      -1.57055676    
  -48.7658615      -1.56390297      -20.0000000       2900.60449      -1.57055676    
  -48.7753716      -1.42937005E-02  -20.0000000       2900.60449      -1.57055676    
  -47.2657204       0.00000000      -20.0000000       2900.60449      -1.57055676    
  -48.7753716      -1.42937005E-02  -20.0000000       2671.14600       1.57102323    
  -50.2816200      -7.23225027E-02  -20.0000000       2671.14600       1.57102323    
  -50.2459984       1.47492099      -20.0000000       2671.14600       1.57102323    
  -48.7560692       1.53868604      -20.0000000       2671.14600       1.57102323    
  -51.6464691       2.90894699      -20.0000000       4770.67334       1.57134616    
  -53.0367393       2.70281792      -20.0000000       4770.67334       1.57134616    
  -53.0954399       4.36336088      -20.0000000       4770.67334       1.57134616    
  -51.6648903       4.56408405      -20.0000000       4770.67334       1.57134616    
  -41.2618294      -6.25000000      -20.0000000       18089.3242       1.57054150    
  -42.7680206      -6.25000000      -20.0000000       18089.3242       1.57054150    
  -42.7620697      -4.68767691      -20.0000000       18089.3242       1.57054150    
  -41.2566490      -4.68782711      -20.0000000       18089.3242       1.57054150    
  -44.2611694      -3.12488103      -20.0000000       3372.78247      -1.56985152    
  -42.7563400      -3.12513494      -20.0000000       3372.78247      -1.56985152    
  -42.7620697      -4.68767691      -20.0000000       3372.78247      -1.56985152    
  -44.2670212      -4.68766403      -20.0000000       3372.78247      -1.56985152    
  -44.2611694      -3.12488103      -20.0000000       6428.86035      -1.57048595    
  -45.7611885      -3.12411094      -20.0000000       6428.86035      -1.57048595    
  -45.7603798      -1.56126106      -20.0000000       6428.86035      -1.57048595    
  -44.2565308      -1.56226599      -20.0000000       6428.86035      -1.57048595    
  -45.7603798      -1.56126106      -20.0000000       2839.85156      -1.57055223    
  -47.2643318      -1.55986798      -20.0000000       2839.85156      -1.57055223    
  -47.2657204       0.00000000      -20.0000000       2839.85156      -1.57055223    
  -45.7582893       0.00000000      -20.0000000       2839.85156      -1.57055223    
  -47.2657204       0.00000000      -20.0000000       2796.07812       1.57103527    
  -48.7753716      -1.42937005E-02  -20.0000000       2796.07812       1.57103527    
  -48.7560692       1.53868604      -20.0000000       2796.07812       1.57103527    
  -47.2535896       1.55706894      -20.0000000       2796.07812       1.57103527    
  -48.7560692       1.53868604      -20.0000000       6722.12158       1.57108212    
  -50.2459984       1.47492099      -20.0000000       6722.12158       1.57108212    
  -50.2011604       3.04989505      -20.0000000       6722.12158       1.57108212    
  -48.7281189       3.10503101      -20.0000000       6722.12158       1.57108212    
  -50.2011604       3.04989505      -20.0000000       5007.91895       1.57139564    
  -51.6464691       2.90894699      -20.0000000       5007.91895       1.57139564    
  -51.6648903       4.56408405      -20.0000000       5007.91895       1.57139564    
  -50.2067184       4.64797401      -20.0000000       5007.91895       1.57139564    
  -51.6648903       4.56408405      -20.0000000       12813.4980      -1.57111657    
  -53.0954399       4.36336088      -20.0000000       12813.4980      -1.57111657    
  -53.2416306       6.06926107      -20.0000000       12813.4980      -1.57111657    
  -51.7500000       6.25000000      -20.0000000       12813.4980      -1.57111657    
  -39.7556496      -6.25000000      -20.0000000       18257.9883       1.57055616    
  -41.2618294      -6.25000000      -20.0000000       18257.9883       1.57055616    
  -41.2566490      -4.68782711      -20.0000000       18257.9883       1.57055616    
  -39.7507591      -4.68851089      -20.0000000       18257.9883       1.57055616    
  -41.2566490      -4.68782711      -20.0000000       3189.53247      -1.56985438    
  -42.7620697      -4.68767691      -20.0000000       3189.53247      -1.56985438    
  -42.7563400      -3.12513494      -20.0000000       3189.53247      -1.56985438    
  -41.2511406      -3.12541890      -20.0000000       3189.53247      -1.56985438    
  -44.2565308      -1.56226599      -20.0000000       6290.84277      -1.57049680    
  -42.7509499      -1.56253600      -20.0000000       6290.84277      -1.57049680    
  -42.7563400      -3.12513494      -20.0000000       6290.84277      -1.57049680    
  -44.2611694      -3.12488103      -20.0000000       6290.84277      -1.57049680    
  -44.2565308      -1.56226599      -20.0000000       2785.89526      -1.57055545    
  -45.7603798      -1.56126106      -20.0000000       2785.89526      -1.57055545    
  -45.7582893       0.00000000      -20.0000000       2785.89526      -1.57055545    
  -44.2515602       0.00000000      -20.0000000       2785.89526      -1.57055545    
  -45.7582893       0.00000000      -20.0000000       2806.61523       1.57103789    
  -47.2657204       0.00000000      -20.0000000       2806.61523       1.57103789    
  -47.2535896       1.55706894      -20.0000000       2806.61523       1.57103789    
  -45.7509003       1.56100297      -20.0000000       2806.61523       1.57103789    
  -47.2535896       1.55706894      -20.0000000       6702.23730       1.57109928    
  -48.7560692       1.53868604      -20.0000000       6702.23730       1.57109928    
  -48.7281189       3.10503101      -20.0000000       6702.23730       1.57109928    
  -47.2370110       3.11982203      -20.0000000       6702.23730       1.57109928    
  -48.7281189       3.10503101      -20.0000000       4714.00244       1.57149124    
  -50.2011604       3.04989505      -20.0000000       4714.00244       1.57149124    
  -50.2067184       4.64797401      -20.0000000       4714.00244       1.57149124    
  -48.7241211       4.67746210      -20.0000000       4714.00244       1.57149124    
  -50.2067184       4.64797401      -20.0000000       13953.3398      -1.57112408    
  -51.6648903       4.56408405      -20.0000000       13953.3398      -1.57112408    
  -51.7500000       6.25000000      -20.0000000       13953.3398      -1.57112408    
  -50.2455711       6.25000000      -20.0000000       13953.3398      -1.57112408    
  -38.2494698      -6.25000000      -20.0000000       18348.6426       1.57056987    
  -39.7556496      -6.25000000      -20.0000000       18348.6426       1.57056987    
  -39.7507591      -4.68851089      -20.0000000       18348.6426       1.57056987    
  -38.2446404      -4.68936491      -20.0000000       18348.6426       1.57056987    
  -39.7507591      -4.68851089      -20.0000000       3066.47339      -1.56987441    
  -41.2566490      -4.68782711      -20.0000000       3066.47339      -1.56987441    
  -41.2511406      -3.12541890      -20.0000000       3066.47339      -1.56987441    
  -39.7453995      -3.12673903      -20.0000000       3066.47339      -1.56987441    
  -41.2511406      -3.12541890      -20.0000000       6183.72168      -1.57051241    
  -42.7563400      -3.12513494      -20.0000000       6183.72168      -1.57051241    
  -42.7509499      -1.56253600      -20.0000000       6183.72168      -1.57051241    
  -41.2455711      -1.56282198      -20.0000000       6183.72168      -1.57051241    
  -44.2515602       0.00000000      -20.0000000       2742.55396      -1.57056642    
  -42.7457504       0.00000000      -20.0000000       2742.55396      -1.57056642    
  -42.7509499      -1.56253600      -20.0000000       2742.55396      -1.57056642    
  -44.2565308      -1.56226599      -20.0000000       2742.55396      -1.57056642    
  -44.2515602       0.00000000      -20.0000000       2773.33569       1.57103312    
  -45.7582893       0.00000000      -20.0000000       2773.33569       1.57103312    
  -45.7509003       1.56100297      -20.0000000       2773.33569       1.57103312    
  -44.2452011       1.56199801      -20.0000000       2773.33569       1.57103312    
  -45.7509003       1.56100297      -20.0000000       6573.50732       1.57110727    
  -47.2535896       1.55706894      -20.0000000       6573.50732       1.57110727    
  -47.2370110       3.11982203      -20.0000000       6573.50732       1.57110727    
  -45.7402802       3.12332392      -20.0000000       6573.50732       1.57110727    
  -47.2370110       3.11982203      -20.0000000       4308.64600       1.57158852    
  -48.7281189       3.10503101      -20.0000000       4308.64600       1.57158852    
  -48.7241211       4.67746210      -20.0000000       4308.64600       1.57158852    
  -47.2300911       4.68496799      -20.0000000       4308.64600       1.57158852    
  -48.7241211       4.67746210      -20.0000000       15118.3516      -1.57111943    
  -50.2067184       4.64797401      -20.0000000       15118.3516      -1.57111943    
  -50.2455711       6.25000000      -20.0000000       15118.3516      -1.57111943    
  -48.7411499       6.25000000      -20.0000000       15118.3516      -1.57111943    
  -36.7432899      -6.25000000      -20.0000000       18367.6699       1.57058132    
  -38.2494698      -6.25000000      -20.0000000       18367.6699       1.57058132    
  -38.2446404      -4.68936491      -20.0000000       18367.6699       1.57058132    
  -36.7384796      -4.68897390      -20.0000000       18367.6699       1.57058132    
  -38.2446404      -4.68936491      -20.0000000       2991.48022      -1.56990194    
  -39.7507591      -4.68851089      -20.0000000       2991.48022      -1.56990194    
  -39.7453995      -3.12673903      -20.0000000       2991.48022      -1.56990194    
  -38.2396507      -3.12933803      -20.0000000       2991.48022      -1.56990194    
  -39.7453995      -3.12673903      -20.0000000       6113.27881      -1.57052839    
  -41.2511406      -3.12541890      -20.0000000       6113.27881      -1.57052839    
  -41.2455711      -1.56282198      -20.0000000       6113.27881      -1.57052839    
  -39.7399902      -1.56351995      -20.0000000       6113.27881      -1.57052839    
  -41.2455711      -1.56282198      -20.0000000       2705.97217      -1.57057989    
  -42.7509499      -1.56253600      -20.0000000       2705.97217      -1.57057989    
  -42.7457504       0.00000000      -20.0000000       2705.97217      -1.57057989    
  -41.2401695       0.00000000      -20.0000000       2705.97217      -1.57057989    
  -44.2452011       1.56199801      -20.0000000       2751.34326       1.57101989    
  -42.7402611       1.56238496      -20.0000000       2751.34326       1.57101989    
  -42.7457504       0.00000000      -20.0000000       2751.34326       1.57101989    
  -44.2515602       0.00000000      -20.0000000       2751.34326       1.57101989    
  -44.2452011       1.56199801      -20.0000000       6429.45654       1.57110393    
  -45.7509003       1.56100297      -20.0000000       6429.45654       1.57110393    
  -45.7402802       3.12332392      -20.0000000       6429.45654       1.57110393    
  -44.2380295       3.12447906      -20.0000000       6429.45654       1.57110393    
  -45.7402802       3.12332392      -20.0000000       3936.66870       1.57166553    
  -47.2370110       3.11982203      -20.0000000       3936.66870       1.57166553    
  -47.2300911       4.68496799      -20.0000000       3936.66870       1.57166553    
  -45.7329903       4.68700409      -20.0000000       3936.66870       1.57166553    
  -47.2300911       4.68496799      -20.0000000       16121.1836      -1.57110882    
  -48.7241211       4.67746210      -20.0000000       16121.1836      -1.57110882    
  -48.7411499       6.25000000      -20.0000000       16121.1836      -1.57110882    
  -47.2367287       6.25000000      -20.0000000       16121.1836      -1.57110882    
  -35.2371101      -6.25000000      -20.0000000       18323.6602       1.57058895    
  -36.7432899      -6.25000000      -20.0000000       18323.6602       1.57058895    
  -36.7384796      -4.68897390      -20.0000000       18323.6602       1.57058895    
  -35.2325211      -4.68835878      -20.0000000       18323.6602       1.57058895    
  -36.7384796      -4.68897390      -20.0000000       2970.98291      -1.56993389    
  -38.2446404      -4.68936491      -20.0000000       2970.98291      -1.56993389    
  -38.2396507      -3.12933803      -20.0000000       2970.98291      -1.56993389    
  -36.7339096      -3.12783909      -20.0000000       2970.98291      -1.56993389    
  -38.2396507      -3.12933803      -20.0000000       6072.91357      -1.57054198    
  -39.7453995      -3.12673903      -20.0000000       6072.91357      -1.57054198    
  -39.7399902      -1.56351995      -20.0000000       6072.91357      -1.57054198    
  -38.2346497      -1.56438303      -20.0000000       6072.91357      -1.57054198    
  -39.7399902      -1.56351995      -20.0000000       2679.32153      -1.57059324    
  -41.2455711      -1.56282198      -20.0000000       2679.32153      -1.57059324    
  -41.2401695       0.00000000      -20.0000000       2679.32153      -1.57059324    