 VARIABLES="X" "Y" "Z" "abs(p) (Pa)" "angle(p) (rad)"
ZONE N=   3650,E =    3624, F=FEPOINT, ET=QUADRILATERAL
  -56.5164909      -2.47323704      -20.0000000       1.13149309      -2.61235380    
  -55.4176407      -3.26747894      -20.0000000       1.13149309      -2.61235380    
  -55.9264717      -4.64953518      -20.0000000       1.13149309      -2.61235380    
  -56.9148483      -3.51935697      -20.0000000       1.13149309      -2.61235380    
  -56.9148483      -3.51935697      -20.0000000       1.33201277      -2.50110650    
  -57.6058807      -2.18402195      -20.0000000       1.33201277      -2.50110650    
  -56.5164909      -2.47323704      -20.0000000       1.33201277      -2.50110650    
  -56.5164909      -2.47323704      -20.0000000       1.33201277      -2.50110650    
  -54.6953812      -5.51239681      -20.0000000      0.905799747      -2.80364370    
  -55.9264717      -4.64953518      -20.0000000      0.905799747      -2.80364370    
  -55.4176407      -3.26747894      -20.0000000      0.905799747      -2.80364370    
  -54.2450790      -3.94889998      -20.0000000      0.905799747      -2.80364370    
  -54.2450790      -3.94889998      -20.0000000      0.699254215      -3.13254261    
  -52.9834785      -4.46340179      -20.0000000      0.699254215      -3.13254261    
  -53.2955093      -6.05576801      -20.0000000      0.699254215      -3.13254261    
  -54.6953812      -5.51239681      -20.0000000      0.699254215      -3.13254261    
  -56.5223999      -1.11500299      -20.0000000       1.34969878      -2.48572016    
  -56.5164909      -2.47323704      -20.0000000       1.34969878      -2.48572016    
  -57.6058807      -2.18402195      -20.0000000       1.34969878      -2.48572016    
  -57.9577713     -0.724482894      -20.0000000       1.34969878      -2.48572016    
  -56.5164909      -2.47323704      -20.0000000       1.07627869      -2.61446285    
  -56.5223999      -1.11500299      -20.0000000       1.07627869      -2.61446285    
  -55.1657600      -1.76926601      -20.0000000       1.07627869      -2.61446285    
  -55.4176407      -3.26747894      -20.0000000       1.07627869      -2.61446285    
  -54.2450790      -3.94889998      -20.0000000      0.849628389      -2.76542974    
  -55.4176407      -3.26747894      -20.0000000      0.849628389      -2.76542974    
  -55.1657600      -1.76926601      -20.0000000      0.849628389      -2.76542974    
  -53.8819199      -2.32836604      -20.0000000      0.849628389      -2.76542974    
  -52.9834785      -4.46340179      -20.0000000      0.604029953       2.60527372    
  -51.6155815      -4.69134283      -20.0000000      0.604029953       2.60527372    
  -51.8049088      -6.24783087      -20.0000000      0.604029953       2.60527372    
  -53.2955093      -6.05576801      -20.0000000      0.604029953       2.60527372    
  -56.3964119      0.254809886      -20.0000000       1.35614884      -2.48034191    
  -56.5223999      -1.11500299      -20.0000000       1.35614884      -2.48034191    
  -57.9577713     -0.724482894      -20.0000000       1.35614884      -2.48034191    
  -57.9511719      0.779103875      -20.0000000       1.35614884      -2.48034191    
  -53.8819199      -2.32836604      -20.0000000      0.635296702      -3.03807616    
  -52.7235603      -2.92538095      -20.0000000      0.635296702      -3.03807616    
  -52.9834785      -4.46340179      -20.0000000      0.635296702      -3.03807616    
  -54.2450790      -3.94889998      -20.0000000      0.635296702      -3.03807616    
  -56.5223999      -1.11500299      -20.0000000       1.04363942      -2.62333727    
  -56.3964119      0.254809886      -20.0000000       1.04363942      -2.62333727    
  -54.8835487     -0.325594515      -20.0000000       1.04363942      -2.62333727    
  -55.1657600      -1.76926601      -20.0000000       1.04363942      -2.62333727    
  -50.2990494      -6.25000000      -20.0000000      0.734517932       2.02710128    
  -51.8049088      -6.24783087      -20.0000000      0.734517932       2.02710128    
  -51.6155815      -4.69134283      -20.0000000      0.734517932       2.02710128    
  -50.1911316      -4.70199823      -20.0000000      0.734517932       2.02710128    
  -53.8819199      -2.32836604      -20.0000000      0.768267870      -2.80752158    
  -55.1657600      -1.76926601      -20.0000000      0.768267870      -2.80752158    
  -54.8835487     -0.325594515      -20.0000000      0.768267870      -2.80752158    
  -53.3087082     -0.726661325      -20.0000000      0.768267870      -2.80752158    
  -52.7235603      -2.92538095      -20.0000000      0.501617670       2.66539478    
  -51.4683685      -3.18431592      -20.0000000      0.501617670       2.66539478    
  -51.6155815      -4.69134283      -20.0000000      0.501617670       2.66539478    
  -52.9834785      -4.46340179      -20.0000000      0.501617670       2.66539478    
  -56.1067696       1.60355306      -20.0000000       1.31672657      -2.49570704    
  -56.3964119      0.254809886      -20.0000000       1.31672657      -2.49570704    
  -57.9511719      0.779103875      -20.0000000       1.31672657      -2.49570704    
  -57.5863686       2.23558092      -20.0000000       1.31672657      -2.49570704    
  -56.3964119      0.254809886      -20.0000000       1.00172043      -2.64464045    
  -56.1067696       1.60355306      -20.0000000       1.00172043      -2.64464045    
  -54.6488190       1.11988902      -20.0000000       1.00172043      -2.64464045    
  -54.8835487     -0.325594515      -20.0000000       1.00172043      -2.64464045    
  -51.8859215      -1.67511594      -20.0000000      0.525429428       3.07746077    
  -52.7235603      -2.92538095      -20.0000000      0.525429428       3.07746077    
  -53.8819199      -2.32836604      -20.0000000      0.525429428       3.07746077    
  -53.3087082     -0.726661325      -20.0000000      0.525429428       3.07746077    
  -48.7928200      -6.25000000      -20.0000000       1.05180347       1.68211865    
  -50.2990494      -6.25000000      -20.0000000       1.05180347       1.68211865    
  -50.1911316      -4.70199823      -20.0000000       1.05180347       1.68211865    
  -48.7387619      -4.69004917      -20.0000000       1.05180347       1.68211865    
  -50.1911316      -4.70199823      -20.0000000      0.625049651       1.94799006    
  -51.6155815      -4.69134283      -20.0000000      0.625049651       1.94799006    
  -51.4683685      -3.18431592      -20.0000000      0.625049651       1.94799006    
  -50.1564102      -3.12996602      -20.0000000      0.625049651       1.94799006    
  -54.6488190       1.11988902      -20.0000000      0.704675615      -2.86660409    
  -53.2043991       1.01675200      -20.0000000      0.704675615      -2.86660409    
  -53.3087082     -0.726661325      -20.0000000      0.704675615      -2.86660409    
  -54.8835487     -0.325594515      -20.0000000      0.704675615      -2.86660409    
  -51.4683685      -3.18431592      -20.0000000      0.462279230       2.53808379    
  -52.7235603      -2.92538095      -20.0000000      0.462279230       2.53808379    
  -51.8859215      -1.67511594      -20.0000000      0.462279230       2.53808379    
  -51.8859215      -1.67511594      -20.0000000      0.462279230       2.53808379    
  -55.6295395       2.91055298      -20.0000000       1.22460246      -2.54352880    
  -56.1067696       1.60355306      -20.0000000       1.22460246      -2.54352880    
  -57.5863686       2.23558092      -20.0000000       1.22460246      -2.54352880    
  -56.8836594       3.56473303      -20.0000000       1.22460246      -2.54352880    
  -47.2866096      -6.25000000      -20.0000000       1.41962397       1.50737727    
  -48.7928200      -6.25000000      -20.0000000       1.41962397       1.50737727    
  -48.7387619      -4.69004917      -20.0000000       1.41962397       1.50737727    
  -47.2626686      -4.68801212      -20.0000000       1.41962397       1.50737727    
  -48.7387619      -4.69004917      -20.0000000      0.966057837       1.57580733    
  -50.1911316      -4.70199823      -20.0000000      0.966057837       1.57580733    
  -50.1564102      -3.12996602      -20.0000000      0.966057837       1.57580733    
  -48.7254105      -3.12169194      -20.0000000      0.966057837       1.57580733    
  -50.1564102      -3.12996602      -20.0000000      0.586343408       1.89625156    
  -51.4683685      -3.18431592      -20.0000000      0.586343408       1.89625156    
  -51.8859215      -1.67511594      -20.0000000      0.586343408       1.89625156    
  -50.2854195      -1.59545600      -20.0000000      0.586343408       1.89625156    
  -54.6488190       1.11988902      -20.0000000      0.945203543      -2.68469453    
  -56.1067696       1.60355306      -20.0000000      0.945203543      -2.68469453    
  -55.6295395       2.91055298      -20.0000000      0.945203543      -2.68469453    
  -54.3531990       2.57653904      -20.0000000      0.945203543      -2.68469453    
  -51.7686501     -0.191007897      -20.0000000      0.449342281       2.68946314    
  -51.8859215      -1.67511594      -20.0000000      0.449342281       2.68946314    
  -53.3087082     -0.726661325      -20.0000000      0.449342281       2.68946314    
  -53.3087082     -0.726661325      -20.0000000      0.449342281       2.68946314    
  -51.7686501     -0.191007897      -20.0000000      0.459389299       2.82372832    
  -53.3087082     -0.726661325      -20.0000000      0.459389299       2.82372832    
  -53.2043991       1.01675200      -20.0000000      0.459389299       2.82372832    
  -51.7500000       1.29565406      -20.0000000      0.459389299       2.82372832    
  -53.0367393       2.70281792      -20.0000000      0.676713705      -2.91340208    
  -53.2043991       1.01675200      -20.0000000      0.676713705      -2.91340208    
  -54.6488190       1.11988902      -20.0000000      0.676713705      -2.91340208    
  -54.3531990       2.57653904      -20.0000000      0.676713705      -2.91340208    
  -45.7804108      -6.25000000      -20.0000000       1.71808779       1.40872955    
  -47.2866096      -6.25000000      -20.0000000       1.71808779       1.40872955    
  -47.2626686      -4.68801212      -20.0000000       1.71808779       1.40872955    
  -45.7679100      -4.68779421      -20.0000000       1.71808779       1.40872955    
  -47.2626686      -4.68801212      -20.0000000       1.34484196       1.41992080    
  -48.7387619      -4.69004917      -20.0000000       1.34484196       1.41992080    
  -48.7254105      -3.12169194      -20.0000000       1.34484196       1.41992080    
  -47.2550507      -3.12222195      -20.0000000       1.34484196       1.41992080    
  -54.5736809       4.04919481      -20.0000000       1.04242659      -2.67265773    
  -55.6295395       2.91055298      -20.0000000       1.04242659      -2.67265773    
  -56.8836594       3.56473303      -20.0000000       1.04242659      -2.67265773    
  -55.8850899       4.68635893      -20.0000000       1.04242659      -2.67265773    
  -48.7254105      -3.12169194      -20.0000000      0.983114123       1.50540304    
  -50.1564102      -3.12996602      -20.0000000      0.983114123       1.50540304    
  -50.2854195      -1.59545600      -20.0000000      0.983114123       1.50540304    
  -48.7658615      -1.56390297      -20.0000000      0.983114123       1.50540304    
  -50.2854195      -1.59545600      -20.0000000      0.573087811       1.87730575    
  -51.8859215      -1.67511594      -20.0000000      0.573087811       1.87730575    
  -51.7686501     -0.191007897      -20.0000000      0.573087811       1.87730575    
  -50.2816200      -7.23225027E-02  -20.0000000      0.573087811       1.87730575    
  -55.6295395       2.91055298      -20.0000000      0.881196558      -2.75361013    
  -54.5736809       4.04919481      -20.0000000      0.881196558      -2.75361013    
  -54.3531990       2.57653904      -20.0000000      0.881196558      -2.75361013    
  -54.3531990       2.57653904      -20.0000000      0.881196558      -2.75361013    
  -51.6464691       2.90894699      -20.0000000      0.464601994       2.78292608    
  -51.7500000       1.29565406      -20.0000000      0.464601994       2.78292608    
  -53.2043991       1.01675200      -20.0000000      0.464601994       2.78292608    
  -53.0367393       2.70281792      -20.0000000      0.464601994       2.78292608    
  -44.2742119      -6.25000000      -20.0000000       1.87901402       1.34268796    
  -45.7804108      -6.25000000      -20.0000000       1.87901402       1.34268796    
  -45.7679100      -4.68779421      -20.0000000       1.87901402       1.34268796    
  -44.2670212      -4.68766403      -20.0000000       1.87901402       1.34268796    
  -45.7679100      -4.68779421      -20.0000000       1.62610197       1.34633052    
  -47.2626686      -4.68801212      -20.0000000       1.62610197       1.34633052    
  -47.2550507      -3.12222195      -20.0000000       1.62610197       1.34633052    
  -45.7611885      -3.12411094      -20.0000000       1.62610197       1.34633052    
  -51.7500000       1.29565406      -20.0000000      0.583939850       1.85099733    
  -50.2459984       1.47492099      -20.0000000      0.583939850       1.85099733    
  -50.2816200      -7.23225027E-02  -20.0000000      0.583939850       1.85099733    
  -51.7686501     -0.191007897      -20.0000000      0.583939850       1.85099733    
  -47.2550507      -3.12222195      -20.0000000       1.38995659       1.37044084    
  -48.7254105      -3.12169194      -20.0000000       1.38995659       1.37044084    
  -48.7658615      -1.56390297      -20.0000000       1.38995659       1.37044084    
  -47.2643318      -1.55986798      -20.0000000       1.38995659       1.37044084    
  -48.7658615      -1.56390297      -20.0000000       1.00403810       1.47526670    
  -50.2854195      -1.59545600      -20.0000000       1.00403810       1.47526670    
  -50.2816200      -7.23225027E-02  -20.0000000       1.00403810       1.47526670    
  -48.7753716      -1.42937005E-02  -20.0000000       1.00403810       1.47526670    
  -54.5736809       4.04919481      -20.0000000      0.684868515      -2.96137929    
  -53.0954399       4.36336088      -20.0000000      0.684868515      -2.96137929    
  -53.0367393       2.70281792      -20.0000000      0.684868515      -2.96137929    
  -54.3531990       2.57653904      -20.0000000      0.684868515      -2.96137929    
  -54.6465797       5.53822613      -20.0000000      0.885368168      -2.86254883    
  -54.5736809       4.04919481      -20.0000000      0.885368168      -2.86254883    
  -55.8850899       4.68635893      -20.0000000      0.885368168      -2.86254883    
  -55.8850899       4.68635893      -20.0000000      0.885368168      -2.86254883    
  -44.2670212      -4.68766403      -20.0000000       1.89653194       1.29541075    
  -42.7620697      -4.68767691      -20.0000000       1.89653194       1.29541075    
  -42.7680206      -6.25000000      -20.0000000       1.89653194       1.29541075    
  -44.2742119      -6.25000000      -20.0000000       1.89653194       1.29541075    
  -44.2670212      -4.68766403      -20.0000000       1.74150383       1.30431664    
  -45.7679100      -4.68779421      -20.0000000       1.74150383       1.30431664    
  -45.7611885      -3.12411094      -20.0000000       1.74150383       1.30431664    
  -44.2611694      -3.12488103      -20.0000000       1.74150383       1.30431664    
  -45.7611885      -3.12411094      -20.0000000       1.67324996       1.31300235    
  -47.2550507      -3.12222195      -20.0000000       1.67324996       1.31300235    
  -47.2643318      -1.55986798      -20.0000000       1.67324996       1.31300235    
  -45.7603798      -1.56126106      -20.0000000       1.67324996       1.31300235    
  -50.2459984       1.47492099      -20.0000000      0.584227979       1.88880253    
  -51.7500000       1.29565406      -20.0000000      0.584227979       1.88880253    
  -51.6464691       2.90894699      -20.0000000      0.584227979       1.88880253    
  -50.2011604       3.04989505      -20.0000000      0.584227979       1.88880253    
  -54.6465797       5.53822613      -20.0000000      0.706838727      -3.11735797    
  -53.2416306       6.06926107      -20.0000000      0.706838727      -3.11735797    
  -53.0954399       4.36336088      -20.0000000      0.706838727      -3.11735797    
  -54.5736809       4.04919481      -20.0000000      0.706838727      -3.11735797    
  -47.2643318      -1.55986798      -20.0000000       1.43229306       1.34981227    
  -48.7658615      -1.56390297      -20.0000000       1.43229306       1.34981227    
  -48.7753716      -1.42937005E-02  -20.0000000       1.43229306       1.34981227    
  -47.2657204       0.00000000      -20.0000000       1.43229306       1.34981227    
  -48.7753716      -1.42937005E-02  -20.0000000       1.00835562       1.47275257    
  -50.2816200      -7.23225027E-02  -20.0000000       1.00835562       1.47275257    
  -50.2459984       1.47492099      -20.0000000       1.00835562       1.47275257    
  -48.7560692       1.53868604      -20.0000000       1.00835562       1.47275257    
  -51.6464691       2.90894699      -20.0000000      0.501525819       2.75776243    
  -53.0367393       2.70281792      -20.0000000      0.501525819       2.75776243    
  -53.0954399       4.36336088      -20.0000000      0.501525819       2.75776243    
  -51.6648903       4.56408405      -20.0000000      0.501525819       2.75776243    
  -41.2618294      -6.25000000      -20.0000000       1.81443584       1.26413798    
  -42.7680206      -6.25000000      -20.0000000       1.81443584       1.26413798    
  -42.7620697      -4.68767691      -20.0000000       1.81443584       1.26413798    
  -41.2566490      -4.68782711      -20.0000000       1.81443584       1.26413798    
  -44.2611694      -3.12488103      -20.0000000       1.70543551       1.27422893    
  -42.7563400      -3.12513494      -20.0000000       1.70543551       1.27422893    
  -42.7620697      -4.68767691      -20.0000000       1.70543551       1.27422893    
  -44.2670212      -4.68766403      -20.0000000       1.70543551       1.27422893    
  -44.2611694      -3.12488103      -20.0000000       1.76727378       1.28234601    
  -45.7611885      -3.12411094      -20.0000000       1.76727378       1.28234601    
  -45.7603798      -1.56126106      -20.0000000       1.76727378       1.28234601    
  -44.2565308      -1.56226599      -20.0000000       1.76727378       1.28234601    
  -45.7603798      -1.56126106      -20.0000000       1.71937084       1.29979730    
  -47.2643318      -1.55986798      -20.0000000       1.71937084       1.29979730    
  -47.2657204       0.00000000      -20.0000000       1.71937084       1.29979730    
  -45.7582893       0.00000000      -20.0000000       1.71937084       1.29979730    
  -47.2657204       0.00000000      -20.0000000       1.43415487       1.34939575    
  -48.7753716      -1.42937005E-02  -20.0000000       1.43415487       1.34939575    
  -48.7560692       1.53868604      -20.0000000       1.43415487       1.34939575    
  -47.2535896       1.55706894      -20.0000000       1.43415487       1.34939575    
  -48.7560692       1.53868604      -20.0000000      0.984697223       1.50322449    
  -50.2459984       1.47492099      -20.0000000      0.984697223       1.50322449    
  -50.2011604       3.04989505      -20.0000000      0.984697223       1.50322449    
  -48.7281189       3.10503101      -20.0000000      0.984697223       1.50322449    
  -50.2011604       3.04989505      -20.0000000      0.606183887       1.97089171    
  -51.6464691       2.90894699      -20.0000000      0.606183887       1.97089171    
  -51.6648903       4.56408405      -20.0000000      0.606183887       1.97089171    
  -50.2067184       4.64797401      -20.0000000      0.606183887       1.97089171    
  -51.6648903       4.56408405      -20.0000000      0.599413514       2.61701584    
  -53.0954399       4.36336088      -20.0000000      0.599413514       2.61701584    
  -53.2416306       6.06926107      -20.0000000      0.599413514       2.61701584    
  -51.7500000       6.25000000      -20.0000000      0.599413514       2.61701584    
  -39.7556496      -6.25000000      -20.0000000       1.68669176       1.24739695    
  -41.2618294      -6.25000000      -20.0000000       1.68669176       1.24739695    
  -41.2566490      -4.68782711      -20.0000000       1.68669176       1.24739695    
  -39.7507591      -4.68851089      -20.0000000       1.68669176       1.24739695    
  -41.2566490      -4.68782711      -20.0000000       1.57042408       1.25288224    
  -42.7620697      -4.68767691      -20.0000000       1.57042408       1.25288224    
  -42.7563400      -3.12513494      -20.0000000       1.57042408       1.25288224    
  -41.2511406      -3.12541890      -20.0000000       1.57042408       1.25288224    
  -44.2565308      -1.56226599      -20.0000000       1.69053233       1.26118791    
  -42.7509499      -1.56253600      -20.0000000       1.69053233       1.26118791    
  -42.7563400      -3.12513494      -20.0000000       1.69053233       1.26118791    
  -44.2611694      -3.12488103      -20.0000000       1.69053233       1.26118791    
  -44.2565308      -1.56226599      -20.0000000       1.80530024       1.27380037    
  -45.7603798      -1.56126106      -20.0000000       1.80530024       1.27380037    
  -45.7582893       0.00000000      -20.0000000       1.80530024       1.27380037    
  -44.2515602       0.00000000      -20.0000000       1.80530024       1.27380037    
  -45.7582893       0.00000000      -20.0000000       1.72073972       1.29962611    
  -47.2657204       0.00000000      -20.0000000       1.72073972       1.29962611    
  -47.2535896       1.55706894      -20.0000000       1.72073972       1.29962611    
  -45.7509003       1.56100297      -20.0000000       1.72073972       1.29962611    
  -47.2535896       1.55706894      -20.0000000       1.39416492       1.36951876    
  -48.7560692       1.53868604      -20.0000000       1.39416492       1.36951876    
  -48.7281189       3.10503101      -20.0000000       1.39416492       1.36951876    
  -47.2370110       3.11982203      -20.0000000       1.39416492       1.36951876    
  -48.7281189       3.10503101      -20.0000000      0.964497328       1.57458174    
  -50.2011604       3.04989505      -20.0000000      0.964497328       1.57458174    
  -50.2067184       4.64797401      -20.0000000      0.964497328       1.57458174    
  -48.7241211       4.67746210      -20.0000000      0.964497328       1.57458174    
  -50.2067184       4.64797401      -20.0000000      0.730771959       2.02370858    
  -51.6648903       4.56408405      -20.0000000      0.730771959       2.02370858    
  -51.7500000       6.25000000      -20.0000000      0.730771959       2.02370858    
  -50.2455711       6.25000000      -20.0000000      0.730771959       2.02370858    
  -38.2494698      -6.25000000      -20.0000000       1.55211997       1.23694193    
  -39.7556496      -6.25000000      -20.0000000       1.55211997       1.23694193    
  -39.7507591      -4.68851089      -20.0000000       1.55211997       1.23694193    
  -38.2446404      -4.68936491      -20.0000000       1.55211997       1.23694193    
  -39.7507591      -4.68851089      -20.0000000       1.39908063       1.23906195    
  -41.2566490      -4.68782711      -20.0000000       1.39908063       1.23906195    
  -41.2511406      -3.12541890      -20.0000000       1.39908063       1.23906195    
  -39.7453995      -3.12673903      -20.0000000       1.39908063       1.23906195    
  -41.2511406      -3.12541890      -20.0000000       1.51098609       1.24412072    
  -42.7563400      -3.12513494      -20.0000000       1.51098609       1.24412072    
  -42.7509499      -1.56253600      -20.0000000       1.51098609       1.24412072    
  -41.2455711      -1.56282198      -20.0000000       1.51098609       1.24412072    
  -44.2515602       0.00000000      -20.0000000       1.70746458       1.25599408    
  -42.7457504       0.00000000      -20.0000000       1.70746458       1.25599408    
  -42.7509499      -1.56253600      -20.0000000       1.70746458       1.25599408    
  -44.2565308      -1.56226599      -20.0000000       1.70746458       1.25599408    
  -44.2515602       0.00000000      -20.0000000       1.80587649       1.27369213    
  -45.7582893       0.00000000      -20.0000000       1.80587649       1.27369213    
  -45.7509003       1.56100297      -20.0000000       1.80587649       1.27369213    
  -44.2452011       1.56199801      -20.0000000       1.80587649       1.27369213    
  -45.7509003       1.56100297      -20.0000000       1.67739928       1.31246412    
  -47.2535896       1.55706894      -20.0000000       1.67739928       1.31246412    
  -47.2370110       3.11982203      -20.0000000       1.67739928       1.31246412    
  -45.7402802       3.12332392      -20.0000000       1.67739928       1.31246412    
  -47.2370110       3.11982203      -20.0000000       1.35187495       1.41796851    
  -48.7281189       3.10503101      -20.0000000       1.35187495       1.41796851    
  -48.7241211       4.67746210      -20.0000000       1.35187495       1.41796851    
  -47.2300911       4.68496799      -20.0000000       1.35187495       1.41796851    
  -48.7241211       4.67746210      -20.0000000       1.05860162       1.67589414    
  -50.2067184       4.64797401      -20.0000000       1.05860162       1.67589414    
  -50.2455711       6.25000000      -20.0000000       1.05860162       1.67589414    
  -48.7411499       6.25000000      -20.0000000       1.05860162       1.67589414    
  -36.7432899      -6.25000000      -20.0000000       1.43356717       1.21755850    
  -38.2494698      -6.25000000      -20.0000000       1.43356717       1.21755850    
  -38.2446404      -4.68936491      -20.0000000       1.43356717       1.21755850    
  -36.7384796      -4.68897390      -20.0000000       1.43356717       1.21755850    
  -38.2446404      -4.68936491      -20.0000000       1.23371708       1.22823608    
  -39.7507591      -4.68851089      -20.0000000       1.23371708       1.22823608    
  -39.7453995      -3.12673903      -20.0000000       1.23371708       1.22823608    
  -38.2396507      -3.12933803      -20.0000000       1.23371708       1.22823608    
  -39.7453995      -3.12673903      -20.0000000       1.29900753       1.23261774    
  -41.2511406      -3.12541890      -20.0000000       1.29900753       1.23261774    
  -41.2455711      -1.56282198      -20.0000000       1.29900753       1.23261774    
  -39.7399902      -1.56351995      -20.0000000       1.29900753       1.23261774    
  -41.2455711      -1.56282198      -20.0000000       1.50145447       1.24046028    
  -42.7509499      -1.56253600      -20.0000000       1.50145447       1.24046028    
  -42.7457504       0.00000000      -20.0000000       1.50145447       1.24046028    
  -41.2401695       0.00000000      -20.0000000       1.50145447       1.24046028    
  -44.2452011       1.56199801      -20.0000000       1.70753443       1.25594890    
  -42.7402611       1.56238496      -20.0000000       1.70753443       1.25594890    
  -42.7457504       0.00000000      -20.0000000       1.70753443       1.25594890    
  -44.2515602       0.00000000      -20.0000000       1.70753443       1.25594890    
  -44.2452011       1.56199801      -20.0000000       1.77032709       1.28196323    
  -45.7509003       1.56100297      -20.0000000       1.77032709       1.28196323    
  -45.7402802       3.12332392      -20.0000000       1.77032709       1.28196323    
  -44.2380295       3.12447906      -20.0000000       1.77032709       1.28196323    
  -45.7402802       3.12332392      -20.0000000       1.63264132       1.34512210    
  -47.2370110       3.11982203      -20.0000000       1.63264132       1.34512210    
  -47.2300911       4.68496799      -20.0000000       1.63264132       1.34512210    
  -45.7329903       4.68700409      -20.0000000       1.63264132       1.34512210    
  -47.2300911       4.68496799      -20.0000000       1.43217444       1.50323164    
  -48.7241211       4.67746210      -20.0000000       1.43217444       1.50323164    
  -48.7411499       6.25000000      -20.0000000       1.43217444       1.50323164    
  -47.2367287       6.25000000      -20.0000000       1.43217444       1.50323164    
  -35.2371101      -6.25000000      -20.0000000       1.34179616       1.17827129    
  -36.7432899      -6.25000000      -20.0000000       1.34179616       1.17827129    
  -36.7384796      -4.68897390      -20.0000000       1.34179616       1.17827129    
  -35.2325211      -4.68835878      -20.0000000       1.34179616       1.17827129    
  -36.7384796      -4.68897390      -20.0000000       1.09746397       1.20825529    
  -38.2446404      -4.68936491      -20.0000000       1.09746397       1.20825529    
  -38.2396507      -3.12933803      -20.0000000       1.09746397       1.20825529    
  -36.7339096      -3.12783909      -20.0000000       1.09746397       1.20825529    
  -38.2396507      -3.12933803      -20.0000000       1.10072386       1.22299755    
  -39.7453995      -3.12673903      -20.0000000       1.10072386       1.22299755    
  -39.7399902      -1.56351995      -20.0000000       1.10072386       1.22299755    
  -38.2346497      -1.56438303      -20.0000000       1.10072386       1.22299755    
  -39.7399902      -1.56351995      -20.0000000       1.26686049       1.22953057    
  -41.2455711      -1.56282198      -20.0000000       1.26686049       1.22953057    
  -41.2401695       0.00000000      -20.0000000       1.26686049       1.22953057    