 VARIABLES="X" "Y" "Z" "abs(p) (Pa)" "angle(p) (rad)"
ZONE N=   3650,E =    3624, F=FEPOINT, ET=QUADRILATERAL
  -56.5164909      -2.47323704      -20.0000000       5.92053032       1.67511439    
  -55.4176407      -3.26747894      -20.0000000       5.92053032       1.67511439    
  -55.9264717      -4.64953518      -20.0000000       5.92053032       1.67511439    
  -56.9148483      -3.51935697      -20.0000000       5.92053032       1.67511439    
  -56.9148483      -3.51935697      -20.0000000       6.66673994       1.65998816    
  -57.6058807      -2.18402195      -20.0000000       6.66673994       1.65998816    
  -56.5164909      -2.47323704      -20.0000000       6.66673994       1.65998816    
  -56.5164909      -2.47323704      -20.0000000       6.66673994       1.65998816    
  -54.6953812      -5.51239681      -20.0000000       5.23978996       1.69034207    
  -55.9264717      -4.64953518      -20.0000000       5.23978996       1.69034207    
  -55.4176407      -3.26747894      -20.0000000       5.23978996       1.69034207    
  -54.2450790      -3.94889998      -20.0000000       5.23978996       1.69034207    
  -54.2450790      -3.94889998      -20.0000000       4.57339382       1.70847058    
  -52.9834785      -4.46340179      -20.0000000       4.57339382       1.70847058    
  -53.2955093      -6.05576801      -20.0000000       4.57339382       1.70847058    
  -54.6953812      -5.51239681      -20.0000000       4.57339382       1.70847058    
  -56.5223999      -1.11500299      -20.0000000       6.52002811       1.66652930    
  -56.5164909      -2.47323704      -20.0000000       6.52002811       1.66652930    
  -57.6058807      -2.18402195      -20.0000000       6.52002811       1.66652930    
  -57.9577713     -0.724482894      -20.0000000       6.52002811       1.66652930    
  -56.5164909      -2.47323704      -20.0000000       5.34749317       1.69931746    
  -56.5223999      -1.11500299      -20.0000000       5.34749317       1.69931746    
  -55.1657600      -1.76926601      -20.0000000       5.34749317       1.69931746    
  -55.4176407      -3.26747894      -20.0000000       5.34749317       1.69931746    
  -54.2450790      -3.94889998      -20.0000000       4.70222330       1.72333610    
  -55.4176407      -3.26747894      -20.0000000       4.70222330       1.72333610    
  -55.1657600      -1.76926601      -20.0000000       4.70222330       1.72333610    
  -53.8819199      -2.32836604      -20.0000000       4.70222330       1.72333610    
  -52.9834785      -4.46340179      -20.0000000       3.93809485       1.73189628    
  -51.6155815      -4.69134283      -20.0000000       3.93809485       1.73189628    
  -51.8049088      -6.24783087      -20.0000000       3.93809485       1.73189628    
  -53.2955093      -6.05576801      -20.0000000       3.93809485       1.73189628    
  -56.3964119      0.254809886      -20.0000000       6.48682642       1.66916120    
  -56.5223999      -1.11500299      -20.0000000       6.48682642       1.66916120    
  -57.9577713     -0.724482894      -20.0000000       6.48682642       1.66916120    
  -57.9511719      0.779103875      -20.0000000       6.48682642       1.66916120    
  -53.8819199      -2.32836604      -20.0000000       4.20948648       1.74470472    
  -52.7235603      -2.92538095      -20.0000000       4.20948648       1.74470472    
  -52.9834785      -4.46340179      -20.0000000       4.20948648       1.74470472    
  -54.2450790      -3.94889998      -20.0000000       4.20948648       1.74470472    
  -56.5223999      -1.11500299      -20.0000000       5.16811466       1.70967722    
  -56.3964119      0.254809886      -20.0000000       5.16811466       1.70967722    
  -54.8835487     -0.325594515      -20.0000000       5.16811466       1.70967722    
  -55.1657600      -1.76926601      -20.0000000       5.16811466       1.70967722    
  -50.2990494      -6.25000000      -20.0000000       3.40756965       1.76014769    
  -51.8049088      -6.24783087      -20.0000000       3.40756965       1.76014769    
  -51.6155815      -4.69134283      -20.0000000       3.40756965       1.76014769    
  -50.1911316      -4.70199823      -20.0000000       3.40756965       1.76014769    
  -53.8819199      -2.32836604      -20.0000000       4.46120167       1.74213326    
  -55.1657600      -1.76926601      -20.0000000       4.46120167       1.74213326    
  -54.8835487     -0.325594515      -20.0000000       4.46120167       1.74213326    
  -53.3087082     -0.726661325      -20.0000000       4.46120167       1.74213326    
  -52.7235603      -2.92538095      -20.0000000       3.77085209       1.76775408    
  -51.4683685      -3.18431592      -20.0000000       3.77085209       1.76775408    
  -51.6155815      -4.69134283      -20.0000000       3.77085209       1.76775408    
  -52.9834785      -4.46340179      -20.0000000       3.77085209       1.76775408    
  -56.1067696       1.60355306      -20.0000000       6.35913563       1.67161274    
  -56.3964119      0.254809886      -20.0000000       6.35913563       1.67161274    
  -57.9511719      0.779103875      -20.0000000       6.35913563       1.67161274    
  -57.5863686       2.23558092      -20.0000000       6.35913563       1.67161274    
  -56.3964119      0.254809886      -20.0000000       5.04304409       1.71509492    
  -56.1067696       1.60355306      -20.0000000       5.04304409       1.71509492    
  -54.6488190       1.11988902      -20.0000000       5.04304409       1.71509492    
  -54.8835487     -0.325594515      -20.0000000       5.04304409       1.71509492    
  -51.8859215      -1.67511594      -20.0000000       3.97642016       1.76945305    
  -52.7235603      -2.92538095      -20.0000000       3.97642016       1.76945305    
  -53.8819199      -2.32836604      -20.0000000       3.97642016       1.76945305    
  -53.3087082     -0.726661325      -20.0000000       3.97642016       1.76945305    
  -48.7928200      -6.25000000      -20.0000000       3.00625300       1.78929830    
  -50.2990494      -6.25000000      -20.0000000       3.00625300       1.78929830    
  -50.1911316      -4.70199823      -20.0000000       3.00625300       1.78929830    
  -48.7387619      -4.69004917      -20.0000000       3.00625300       1.78929830    
  -50.1911316      -4.70199823      -20.0000000       3.38021159       1.79516399    
  -51.6155815      -4.69134283      -20.0000000       3.38021159       1.79516399    
  -51.4683685      -3.18431592      -20.0000000       3.38021159       1.79516399    
  -50.1564102      -3.12996602      -20.0000000       3.38021159       1.79516399    
  -54.6488190       1.11988902      -20.0000000       4.33388138       1.75100672    
  -53.2043991       1.01675200      -20.0000000       4.33388138       1.75100672    
  -53.3087082     -0.726661325      -20.0000000       4.33388138       1.75100672    
  -54.8835487     -0.325594515      -20.0000000       4.33388138       1.75100672    
  -51.4683685      -3.18431592      -20.0000000       3.70148206       1.78471303    
  -52.7235603      -2.92538095      -20.0000000       3.70148206       1.78471303    
  -51.8859215      -1.67511594      -20.0000000       3.70148206       1.78471303    
  -51.8859215      -1.67511594      -20.0000000       3.70148206       1.78471303    
  -55.6295395       2.91055298      -20.0000000       6.11953306       1.67449880    
  -56.1067696       1.60355306      -20.0000000       6.11953306       1.67449880    
  -57.5863686       2.23558092      -20.0000000       6.11953306       1.67449880    
  -56.8836594       3.56473303      -20.0000000       6.11953306       1.67449880    
  -47.2866096      -6.25000000      -20.0000000       2.69262815       1.81766045    
  -48.7928200      -6.25000000      -20.0000000       2.69262815       1.81766045    
  -48.7387619      -4.69004917      -20.0000000       2.69262815       1.81766045    
  -47.2626686      -4.68801212      -20.0000000       2.69262815       1.81766045    
  -48.7387619      -4.69004917      -20.0000000       3.05317998       1.82467353    
  -50.1911316      -4.70199823      -20.0000000       3.05317998       1.82467353    
  -50.1564102      -3.12996602      -20.0000000       3.05317998       1.82467353    
  -48.7254105      -3.12169194      -20.0000000       3.05317998       1.82467353    
  -50.1564102      -3.12996602      -20.0000000       3.41815162       1.80943036    
  -51.4683685      -3.18431592      -20.0000000       3.41815162       1.80943036    
  -51.8859215      -1.67511594      -20.0000000       3.41815162       1.80943036    
  -50.2854195      -1.59545600      -20.0000000       3.41815162       1.80943036    
  -54.6488190       1.11988902      -20.0000000       4.92824268       1.71687615    
  -56.1067696       1.60355306      -20.0000000       4.92824268       1.71687615    
  -55.6295395       2.91055298      -20.0000000       4.92824268       1.71687615    
  -54.3531990       2.57653904      -20.0000000       4.92824268       1.71687615    
  -51.7686501     -0.191007897      -20.0000000       3.77942300       1.78717160    
  -51.8859215      -1.67511594      -20.0000000       3.77942300       1.78717160    
  -53.3087082     -0.726661325      -20.0000000       3.77942300       1.78717160    
  -53.3087082     -0.726661325      -20.0000000       3.77942300       1.78717160    
  -51.7686501     -0.191007897      -20.0000000       3.83810401       1.78357506    
  -53.3087082     -0.726661325      -20.0000000       3.83810401       1.78357506    
  -53.2043991       1.01675200      -20.0000000       3.83810401       1.78357506    
  -51.7500000       1.29565406      -20.0000000       3.83810401       1.78357506    
  -53.0367393       2.70281792      -20.0000000       4.28214121       1.75045300    
  -53.2043991       1.01675200      -20.0000000       4.28214121       1.75045300    
  -54.6488190       1.11988902      -20.0000000       4.28214121       1.75045300    
  -54.3531990       2.57653904      -20.0000000       4.28214121       1.75045300    
  -45.7804108      -6.25000000      -20.0000000       2.44207025       1.84510291    
  -47.2866096      -6.25000000      -20.0000000       2.44207025       1.84510291    
  -47.2626686      -4.68801212      -20.0000000       2.44207025       1.84510291    
  -45.7679100      -4.68779421      -20.0000000       2.44207025       1.84510291    
  -47.2626686      -4.68801212      -20.0000000       2.77754807       1.85419202    
  -48.7387619      -4.69004917      -20.0000000       2.77754807       1.85419202    
  -48.7254105      -3.12169194      -20.0000000       2.77754807       1.85419202    
  -47.2550507      -3.12222195      -20.0000000       2.77754807       1.85419202    
  -54.5736809       4.04919481      -20.0000000       5.64088011       1.68182492    
  -55.6295395       2.91055298      -20.0000000       5.64088011       1.68182492    
  -56.8836594       3.56473303      -20.0000000       5.64088011       1.68182492    
  -55.8850899       4.68635893      -20.0000000       5.64088011       1.68182492    
  -48.7254105      -3.12169194      -20.0000000       3.09255934       1.84083748    
  -50.1564102      -3.12996602      -20.0000000       3.09255934       1.84083748    
  -50.2854195      -1.59545600      -20.0000000       3.09255934       1.84083748    
  -48.7658615      -1.56390297      -20.0000000       3.09255934       1.84083748    
  -50.2854195      -1.59545600      -20.0000000       3.44838071       1.81440568    
  -51.8859215      -1.67511594      -20.0000000       3.44838071       1.81440568    
  -51.7686501     -0.191007897      -20.0000000       3.44838071       1.81440568    
  -50.2816200      -7.23225027E-02  -20.0000000       3.44838071       1.81440568    
  -55.6295395       2.91055298      -20.0000000       4.83555603       1.71511579    
  -54.5736809       4.04919481      -20.0000000       4.83555603       1.71511579    
  -54.3531990       2.57653904      -20.0000000       4.83555603       1.71511579    
  -54.3531990       2.57653904      -20.0000000       4.83555603       1.71511579    
  -51.6464691       2.90894699      -20.0000000       3.81189275       1.78049374    
  -51.7500000       1.29565406      -20.0000000       3.81189275       1.78049374    
  -53.2043991       1.01675200      -20.0000000       3.81189275       1.78049374    
  -53.0367393       2.70281792      -20.0000000       3.81189275       1.78049374    
  -44.2742119      -6.25000000      -20.0000000       2.24408388       1.87090814    
  -45.7804108      -6.25000000      -20.0000000       2.24408388       1.87090814    
  -45.7679100      -4.68779421      -20.0000000       2.24408388       1.87090814    
  -44.2670212      -4.68766403      -20.0000000       2.24408388       1.87090814    
  -45.7679100      -4.68779421      -20.0000000       2.54993582       1.88299286    
  -47.2626686      -4.68801212      -20.0000000       2.54993582       1.88299286    
  -47.2550507      -3.12222195      -20.0000000       2.54993582       1.88299286    
  -45.7611885      -3.12411094      -20.0000000       2.54993582       1.88299286    
  -51.7500000       1.29565406      -20.0000000       3.43550396       1.81611955    
  -50.2459984       1.47492099      -20.0000000       3.43550396       1.81611955    
  -50.2816200      -7.23225027E-02  -20.0000000       3.43550396       1.81611955    
  -51.7686501     -0.191007897      -20.0000000       3.43550396       1.81611955    
  -47.2550507      -3.12222195      -20.0000000       2.82591963       1.87143290    
  -48.7254105      -3.12169194      -20.0000000       2.82591963       1.87143290    
  -48.7658615      -1.56390297      -20.0000000       2.82591963       1.87143290    
  -47.2643318      -1.55986798      -20.0000000       2.82591963       1.87143290    
  -48.7658615      -1.56390297      -20.0000000       3.11726260       1.84718215    
  -50.2854195      -1.59545600      -20.0000000       3.11726260       1.84718215    
  -50.2816200      -7.23225027E-02  -20.0000000       3.11726260       1.84718215    
  -48.7753716      -1.42937005E-02  -20.0000000       3.11726260       1.84718215    
  -54.5736809       4.04919481      -20.0000000       4.33306408       1.73775661    
  -53.0954399       4.36336088      -20.0000000       4.33306408       1.73775661    
  -53.0367393       2.70281792      -20.0000000       4.33306408       1.73775661    
  -54.3531990       2.57653904      -20.0000000       4.33306408       1.73775661    
  -54.6465797       5.53822613      -20.0000000       5.36377478       1.68216574    
  -54.5736809       4.04919481      -20.0000000       5.36377478       1.68216574    
  -55.8850899       4.68635893      -20.0000000       5.36377478       1.68216574    
  -55.8850899       4.68635893      -20.0000000       5.36377478       1.68216574    
  -44.2670212      -4.68766403      -20.0000000       2.08995295       1.89425135    
  -42.7620697      -4.68767691      -20.0000000       2.08995295       1.89425135    
  -42.7680206      -6.25000000      -20.0000000       2.08995295       1.89425135    
  -44.2742119      -6.25000000      -20.0000000       2.08995295       1.89425135    
  -44.2670212      -4.68766403      -20.0000000       2.36579895       1.91021574    
  -45.7679100      -4.68779421      -20.0000000       2.36579895       1.91021574    
  -45.7611885      -3.12411094      -20.0000000       2.36579895       1.91021574    
  -44.2611694      -3.12488103      -20.0000000       2.36579895       1.91021574    
  -45.7611885      -3.12411094      -20.0000000       2.60645556       1.90100467    
  -47.2550507      -3.12222195      -20.0000000       2.60645556       1.90100467    
  -47.2643318      -1.55986798      -20.0000000       2.60645556       1.90100467    
  -45.7603798      -1.56126106      -20.0000000       2.60645556       1.90100467    
  -50.2459984       1.47492099      -20.0000000       3.41969037       1.81064308    
  -51.7500000       1.29565406      -20.0000000       3.41969037       1.81064308    
  -51.6464691       2.90894699      -20.0000000       3.41969037       1.81064308    
  -50.2011604       3.04989505      -20.0000000       3.41969037       1.81064308    
  -54.6465797       5.53822613      -20.0000000       4.60348606       1.70722425    
  -53.2416306       6.06926107      -20.0000000       4.60348606       1.70722425    
  -53.0954399       4.36336088      -20.0000000       4.60348606       1.70722425    
  -54.5736809       4.04919481      -20.0000000       4.60348606       1.70722425    
  -47.2643318      -1.55986798      -20.0000000       2.84992313       1.87871146    
  -48.7658615      -1.56390297      -20.0000000       2.84992313       1.87871146    
  -48.7753716      -1.42937005E-02  -20.0000000       2.84992313       1.87871146    
  -47.2657204       0.00000000      -20.0000000       2.84992313       1.87871146    
  -48.7753716      -1.42937005E-02  -20.0000000       3.11502314       1.84763694    
  -50.2816200      -7.23225027E-02  -20.0000000       3.11502314       1.84763694    
  -50.2459984       1.47492099      -20.0000000       3.11502314       1.84763694    
  -48.7560692       1.53868604      -20.0000000       3.11502314       1.84763694    
  -51.6464691       2.90894699      -20.0000000       3.81804562       1.76670361    
  -53.0367393       2.70281792      -20.0000000       3.81804562       1.76670361    
  -53.0954399       4.36336088      -20.0000000       3.81804562       1.76670361    
  -51.6648903       4.56408405      -20.0000000       3.81804562       1.76670361    
  -41.2618294      -6.25000000      -20.0000000       1.97308731       1.91427290    
  -42.7680206      -6.25000000      -20.0000000       1.97308731       1.91427290    
  -42.7620697      -4.68767691      -20.0000000       1.97308731       1.91427290    
  -41.2566490      -4.68782711      -20.0000000       1.97308731       1.91427290    
  -44.2611694      -3.12488103      -20.0000000       2.21962261       1.93502223    
  -42.7563400      -3.12513494      -20.0000000       2.21962261       1.93502223    
  -42.7620697      -4.68767691      -20.0000000       2.21962261       1.93502223    
  -44.2670212      -4.68766403      -20.0000000       2.21962261       1.93502223    
  -44.2611694      -3.12488103      -20.0000000       2.42810678       1.92888677    
  -45.7611885      -3.12411094      -20.0000000       2.42810678       1.92888677    
  -45.7603798      -1.56126106      -20.0000000       2.42810678       1.92888677    
  -44.2565308      -1.56226599      -20.0000000       2.42810678       1.92888677    
  -45.7603798      -1.56126106      -20.0000000       2.63229990       1.90883636    
  -47.2643318      -1.55986798      -20.0000000       2.63229990       1.90883636    
  -47.2657204       0.00000000      -20.0000000       2.63229990       1.90883636    
  -45.7582893       0.00000000      -20.0000000       2.63229990       1.90883636    
  -47.2657204       0.00000000      -20.0000000       2.84890342       1.87887645    
  -48.7753716      -1.42937005E-02  -20.0000000       2.84890342       1.87887645    
  -48.7560692       1.53868604      -20.0000000       2.84890342       1.87887645    
  -47.2535896       1.55706894      -20.0000000       2.84890342       1.87887645    
  -48.7560692       1.53868604      -20.0000000       3.09265828       1.84125638    
  -50.2459984       1.47492099      -20.0000000       3.09265828       1.84125638    
  -50.2011604       3.04989505      -20.0000000       3.09265828       1.84125638    
  -48.7281189       3.10503101      -20.0000000       3.09265828       1.84125638    
  -50.2011604       3.04989505      -20.0000000       3.40137601       1.79546034    
  -51.6464691       2.90894699      -20.0000000       3.40137601       1.79546034    
  -51.6648903       4.56408405      -20.0000000       3.40137601       1.79546034    
  -50.2067184       4.64797401      -20.0000000       3.40137601       1.79546034    
  -51.6648903       4.56408405      -20.0000000       3.93492818       1.73324192    
  -53.0954399       4.36336088      -20.0000000       3.93492818       1.73324192    
  -53.2416306       6.06926107      -20.0000000       3.93492818       1.73324192    
  -51.7500000       6.25000000      -20.0000000       3.93492818       1.73324192    
  -39.7556496      -6.25000000      -20.0000000       1.88661981       1.93061471    
  -41.2618294      -6.25000000      -20.0000000       1.88661981       1.93061471    
  -41.2566490      -4.68782711      -20.0000000       1.88661981       1.93061471    
  -39.7507591      -4.68851089      -20.0000000       1.88661981       1.93061471    
  -41.2566490      -4.68782711      -20.0000000       2.10551858       1.95679998    
  -42.7620697      -4.68767691      -20.0000000       2.10551858       1.95679998    
  -42.7563400      -3.12513494      -20.0000000       2.10551858       1.95679998    
  -41.2511406      -3.12541890      -20.0000000       2.10551858       1.95679998    
  -44.2565308      -1.56226599      -20.0000000       2.28533506       1.95433605    
  -42.7509499      -1.56253600      -20.0000000       2.28533506       1.95433605    
  -42.7563400      -3.12513494      -20.0000000       2.28533506       1.95433605    
  -44.2611694      -3.12488103      -20.0000000       2.28533506       1.95433605    
  -44.2565308      -1.56226599      -20.0000000       2.45590162       1.93708849    
  -45.7603798      -1.56126106      -20.0000000       2.45590162       1.93708849    
  -45.7582893       0.00000000      -20.0000000       2.45590162       1.93708849    
  -44.2515602       0.00000000      -20.0000000       2.45590162       1.93708849    
  -45.7582893       0.00000000      -20.0000000       2.63141179       1.90895915    
  -47.2657204       0.00000000      -20.0000000       2.63141179       1.90895915    
  -47.2535896       1.55706894      -20.0000000       2.63141179       1.90895915    
  -45.7509003       1.56100297      -20.0000000       2.63141179       1.90895915    
  -47.2535896       1.55706894      -20.0000000       2.82387090       1.87172902    
  -48.7560692       1.53868604      -20.0000000       2.82387090       1.87172902    
  -48.7281189       3.10503101      -20.0000000       2.82387090       1.87172902    
  -47.2370110       3.11982203      -20.0000000       2.82387090       1.87172902    
  -48.7281189       3.10503101      -20.0000000       3.05600572       1.82501316    
  -50.2011604       3.04989505      -20.0000000       3.05600572       1.82501316    
  -50.2067184       4.64797401      -20.0000000       3.05600572       1.82501316    
  -48.7241211       4.67746210      -20.0000000       3.05600572       1.82501316    
  -50.2067184       4.64797401      -20.0000000       3.40389967       1.76164114    
  -51.6648903       4.56408405      -20.0000000       3.40389967       1.76164114    
  -51.7500000       6.25000000      -20.0000000       3.40389967       1.76164114    
  -50.2455711       6.25000000      -20.0000000       3.40389967       1.76164114    
  -38.2494698      -6.25000000      -20.0000000       1.82588196       1.94292879    
  -39.7556496      -6.25000000      -20.0000000       1.82588196       1.94292879    
  -39.7507591      -4.68851089      -20.0000000       1.82588196       1.94292879    
  -38.2446404      -4.68936491      -20.0000000       1.82588196       1.94292879    
  -39.7507591      -4.68851089      -20.0000000       2.01759148       1.97526753    
  -41.2566490      -4.68782711      -20.0000000       2.01759148       1.97526753    
  -41.2511406      -3.12541890      -20.0000000       2.01759148       1.97526753    
  -39.7453995      -3.12673903      -20.0000000       2.01759148       1.97526753    
  -41.2511406      -3.12541890      -20.0000000       2.17261457       1.97687197    
  -42.7563400      -3.12513494      -20.0000000       2.17261457       1.97687197    
  -42.7509499      -1.56253600      -20.0000000       2.17261457       1.97687197    
  -41.2455711      -1.56282198      -20.0000000       2.17261457       1.97687197    
  -44.2515602       0.00000000      -20.0000000       2.31456590       1.96285260    
  -42.7457504       0.00000000      -20.0000000       2.31456590       1.96285260    
  -42.7509499      -1.56253600      -20.0000000       2.31456590       1.96285260    
  -44.2565308      -1.56226599      -20.0000000       2.31456590       1.96285260    
  -44.2515602       0.00000000      -20.0000000       2.45520496       1.93719971    
  -45.7582893       0.00000000      -20.0000000       2.45520496       1.93719971    
  -45.7509003       1.56100297      -20.0000000       2.45520496       1.93719971    
  -44.2452011       1.56199801      -20.0000000       2.45520496       1.93719971    
  -45.7509003       1.56100297      -20.0000000       2.60373282       1.90134311    
  -47.2535896       1.55706894      -20.0000000       2.60373282       1.90134311    
  -47.2370110       3.11982203      -20.0000000       2.60373282       1.90134311    
  -45.7402802       3.12332392      -20.0000000       2.60373282       1.90134311    
  -47.2370110       3.11982203      -20.0000000       2.77394986       1.85468435    
  -48.7281189       3.10503101      -20.0000000       2.77394986       1.85468435    
  -48.7241211       4.67746210      -20.0000000       2.77394986       1.85468435    
  -47.2300911       4.68496799      -20.0000000       2.77394986       1.85468435    
  -48.7241211       4.67746210      -20.0000000       2.99982452       1.79034865    
  -50.2067184       4.64797401      -20.0000000       2.99982452       1.79034865    
  -50.2455711       6.25000000      -20.0000000       2.99982452       1.79034865    
  -48.7411499       6.25000000      -20.0000000       2.99982452       1.79034865    
  -36.7432899      -6.25000000      -20.0000000       1.78655231       1.95124733    
  -38.2494698      -6.25000000      -20.0000000       1.78655231       1.95124733    
  -38.2446404      -4.68936491      -20.0000000       1.78655231       1.95124733    
  -36.7384796      -4.68897390      -20.0000000       1.78655231       1.95124733    
  -38.2446404      -4.68936491      -20.0000000       1.95243037       1.99007690    
  -39.7507591      -4.68851089      -20.0000000       1.95243037       1.99007690    
  -39.7453995      -3.12673903      -20.0000000       1.95243037       1.99007690    
  -38.2396507      -3.12933803      -20.0000000       1.95243037       1.99007690    
  -39.7453995      -3.12673903      -20.0000000       2.08422112       1.99630415    
  -41.2511406      -3.12541890      -20.0000000       2.08422112       1.99630415    
  -41.2455711      -1.56282198      -20.0000000       2.08422112       1.99630415    
  -39.7399902      -1.56351995      -20.0000000       2.08422112       1.99630415    
  -41.2455711      -1.56282198      -20.0000000       2.20265150       1.98569143    
  -42.7509499      -1.56253600      -20.0000000       2.20265150       1.98569143    
  -42.7457504       0.00000000      -20.0000000       2.20265150       1.98569143    
  -41.2401695       0.00000000      -20.0000000       2.20265150       1.98569143    
  -44.2452011       1.56199801      -20.0000000       2.31395721       1.96294868    
  -42.7402611       1.56238496      -20.0000000       2.31395721       1.96294868    
  -42.7457504       0.00000000      -20.0000000       2.31395721       1.96294868    
  -44.2515602       0.00000000      -20.0000000       2.31395721       1.96294868    
  -44.2452011       1.56199801      -20.0000000       2.42547321       1.92924762    
  -45.7509003       1.56100297      -20.0000000       2.42547321       1.92924762    
  -45.7402802       3.12332392      -20.0000000       2.42547321       1.92924762    
  -44.2380295       3.12447906      -20.0000000       2.42547321       1.92924762    
  -45.7402802       3.12332392      -20.0000000       2.54535961       1.88357568    
  -47.2370110       3.11982203      -20.0000000       2.54535961       1.88357568    
  -47.2300911       4.68496799      -20.0000000       2.54535961       1.88357568    
  -45.7329903       4.68700409      -20.0000000       2.54535961       1.88357568    
  -47.2300911       4.68496799      -20.0000000       2.68460274       1.81854343    
  -48.7241211       4.67746210      -20.0000000       2.68460274       1.81854343    
  -48.7411499       6.25000000      -20.0000000       2.68460274       1.81854343    
  -47.2367287       6.25000000      -20.0000000       2.68460274       1.81854343    
  -35.2371101      -6.25000000      -20.0000000       1.76545501       1.95579040    
  -36.7432899      -6.25000000      -20.0000000       1.76545501       1.95579040    
  -36.7384796      -4.68897390      -20.0000000       1.76545501       1.95579040    
  -35.2325211      -4.68835878      -20.0000000       1.76545501       1.95579040    
  -36.7384796      -4.68897390      -20.0000000       1.90597892       2.00129771    
  -38.2446404      -4.68936491      -20.0000000       1.90597892       2.00129771    
  -38.2396507      -3.12933803      -20.0000000       1.90597892       2.00129771    
  -36.7339096      -3.12783909      -20.0000000       1.90597892       2.00129771    
  -38.2396507      -3.12933803      -20.0000000       2.01718974       2.01227736    
  -39.7453995      -3.12673903      -20.0000000       2.01718974       2.01227736    
  -39.7399902      -1.56351995      -20.0000000       2.01718974       2.01227736    
  -38.2346497      -1.56438303      -20.0000000       2.01718974       2.01227736    
  -39.7399902      -1.56351995      -20.0000000       2.11415648       2.00549102    
  -41.2455711      -1.56282198      -20.0000000       2.11415648       2.00549102    
  -41.2401695       0.00000000      -20.0000000       2.11415648       2.00549102    