 VARIABLES="X" "Y" "Z" "abs(p) (Pa)" "angle(p) (rad)"
ZONE N=   3650,E =    3624, F=FEPOINT, ET=QUADRILATERAL
  -56.5164909      -2.47323704      -20.0000000       7688.56250       1.57246363    
  -55.4176407      -3.26747894      -20.0000000       7688.56250       1.57246363    
  -55.9264717      -4.64953518      -20.0000000       7688.56250       1.57246363    
  -56.9148483      -3.51935697      -20.0000000       7688.56250       1.57246363    
  -56.9148483      -3.51935697      -20.0000000       8292.94922       1.57195389    
  -57.6058807      -2.18402195      -20.0000000       8292.94922       1.57195389    
  -56.5164909      -2.47323704      -20.0000000       8292.94922       1.57195389    
  -56.5164909      -2.47323704      -20.0000000       8292.94922       1.57195389    
  -54.6953812      -5.51239681      -20.0000000       8563.48535       1.57275009    
  -55.9264717      -4.64953518      -20.0000000       8563.48535       1.57275009    
  -55.4176407      -3.26747894      -20.0000000       8563.48535       1.57275009    
  -54.2450790      -3.94889998      -20.0000000       8563.48535       1.57275009    
  -54.2450790      -3.94889998      -20.0000000       9938.70898       1.57281041    
  -52.9834785      -4.46340179      -20.0000000       9938.70898       1.57281041    
  -53.2955093      -6.05576801      -20.0000000       9938.70898       1.57281041    
  -54.6953812      -5.51239681      -20.0000000       9938.70898       1.57281041    
  -56.5223999      -1.11500299      -20.0000000       3154.07861       1.57256210    
  -56.5164909      -2.47323704      -20.0000000       3154.07861       1.57256210    
  -57.6058807      -2.18402195      -20.0000000       3154.07861       1.57256210    
  -57.9577713     -0.724482894      -20.0000000       3154.07861       1.57256210    
  -56.5164909      -2.47323704      -20.0000000       124.694229      -1.63425505    
  -56.5223999      -1.11500299      -20.0000000       124.694229      -1.63425505    
  -55.1657600      -1.76926601      -20.0000000       124.694229      -1.63425505    
  -55.4176407      -3.26747894      -20.0000000       124.694229      -1.63425505    
  -54.2450790      -3.94889998      -20.0000000       2079.82349      -1.57603931    
  -55.4176407      -3.26747894      -20.0000000       2079.82349      -1.57603931    
  -55.1657600      -1.76926601      -20.0000000       2079.82349      -1.57603931    
  -53.8819199      -2.32836604      -20.0000000       2079.82349      -1.57603931    
  -52.9834785      -4.46340179      -20.0000000       11356.7051       1.57274139    
  -51.6155815      -4.69134283      -20.0000000       11356.7051       1.57274139    
  -51.8049088      -6.24783087      -20.0000000       11356.7051       1.57274139    
  -53.2955093      -6.05576801      -20.0000000       11356.7051       1.57274139    
  -56.3964119      0.254809886      -20.0000000       135.123871       1.57541180    
  -56.5223999      -1.11500299      -20.0000000       135.123871       1.57541180    
  -57.9577713     -0.724482894      -20.0000000       135.123871       1.57541180    
  -57.9511719      0.779103875      -20.0000000       135.123871       1.57541180    
  -53.8819199      -2.32836604      -20.0000000       3134.54443      -1.57514453    
  -52.7235603      -2.92538095      -20.0000000       3134.54443      -1.57514453    
  -52.9834785      -4.46340179      -20.0000000       3134.54443      -1.57514453    
  -54.2450790      -3.94889998      -20.0000000       3134.54443      -1.57514453    
  -56.5223999      -1.11500299      -20.0000000       645.008423      -1.57499206    
  -56.3964119      0.254809886      -20.0000000       645.008423      -1.57499206    
  -54.8835487     -0.325594515      -20.0000000       645.008423      -1.57499206    
  -55.1657600      -1.76926601      -20.0000000       645.008423      -1.57499206    
  -50.2990494      -6.25000000      -20.0000000       12112.3477       1.57267320    
  -51.8049088      -6.24783087      -20.0000000       12112.3477       1.57267320    
  -51.6155815      -4.69134283      -20.0000000       12112.3477       1.57267320    
  -50.1911316      -4.70199823      -20.0000000       12112.3477       1.57267320    
  -53.8819199      -2.32836604      -20.0000000       2346.78442      -1.57292438    
  -55.1657600      -1.76926601      -20.0000000       2346.78442      -1.57292438    
  -54.8835487     -0.325594515      -20.0000000       2346.78442      -1.57292438    
  -53.3087082     -0.726661325      -20.0000000       2346.78442      -1.57292438    
  -52.7235603      -2.92538095      -20.0000000       3470.95288      -1.57526851    
  -51.4683685      -3.18431592      -20.0000000       3470.95288      -1.57526851    
  -51.6155815      -4.69134283      -20.0000000       3470.95288      -1.57526851    
  -52.9834785      -4.46340179      -20.0000000       3470.95288      -1.57526851    
  -56.1067696       1.60355306      -20.0000000       2101.49512      -1.56870580    
  -56.3964119      0.254809886      -20.0000000       2101.49512      -1.56870580    
  -57.9511719      0.779103875      -20.0000000       2101.49512      -1.56870580    
  -57.5863686       2.23558092      -20.0000000       2101.49512      -1.56870580    
  -56.3964119      0.254809886      -20.0000000       686.498779       1.56710124    
  -56.1067696       1.60355306      -20.0000000       686.498779       1.56710124    
  -54.6488190       1.11988902      -20.0000000       686.498779       1.56710124    
  -54.8835487     -0.325594515      -20.0000000       686.498779       1.56710124    
  -51.8859215      -1.67511594      -20.0000000       4171.18408      -1.57262397    
  -52.7235603      -2.92538095      -20.0000000       4171.18408      -1.57262397    
  -53.8819199      -2.32836604      -20.0000000       4171.18408      -1.57262397    
  -53.3087082     -0.726661325      -20.0000000       4171.18408      -1.57262397    
  -48.7928200      -6.25000000      -20.0000000       12570.8604       1.57258451    
  -50.2990494      -6.25000000      -20.0000000       12570.8604       1.57258451    
  -50.1911316      -4.70199823      -20.0000000       12570.8604       1.57258451    
  -48.7387619      -4.69004917      -20.0000000       12570.8604       1.57258451    
  -50.1911316      -4.70199823      -20.0000000       3701.96777      -1.57511926    
  -51.6155815      -4.69134283      -20.0000000       3701.96777      -1.57511926    
  -51.4683685      -3.18431592      -20.0000000       3701.96777      -1.57511926    
  -50.1564102      -3.12996602      -20.0000000       3701.96777      -1.57511926    
  -54.6488190       1.11988902      -20.0000000       633.571045       1.56905830    
  -53.2043991       1.01675200      -20.0000000       633.571045       1.56905830    
  -53.3087082     -0.726661325      -20.0000000       633.571045       1.56905830    
  -54.8835487     -0.325594515      -20.0000000       633.571045       1.56905830    
  -51.4683685      -3.18431592      -20.0000000       5365.55469      -1.57276928    
  -52.7235603      -2.92538095      -20.0000000       5365.55469      -1.57276928    
  -51.8859215      -1.67511594      -20.0000000       5365.55469      -1.57276928    
  -51.8859215      -1.67511594      -20.0000000       5365.55469      -1.57276928    
  -55.6295395       2.91055298      -20.0000000       4624.86279      -1.56877160    
  -56.1067696       1.60355306      -20.0000000       4624.86279      -1.56877160    
  -57.5863686       2.23558092      -20.0000000       4624.86279      -1.56877160    
  -56.8836594       3.56473303      -20.0000000       4624.86279      -1.56877160    
  -47.2866096      -6.25000000      -20.0000000       13180.6328       1.57244933    
  -48.7928200      -6.25000000      -20.0000000       13180.6328       1.57244933    
  -48.7387619      -4.69004917      -20.0000000       13180.6328       1.57244933    
  -47.2626686      -4.68801212      -20.0000000       13180.6328       1.57244933    
  -48.7387619      -4.69004917      -20.0000000       3835.33569      -1.57486427    
  -50.1911316      -4.70199823      -20.0000000       3835.33569      -1.57486427    
  -50.1564102      -3.12996602      -20.0000000       3835.33569      -1.57486427    
  -48.7254105      -3.12169194      -20.0000000       3835.33569      -1.57486427    
  -50.1564102      -3.12996602      -20.0000000       5549.88623      -1.57254922    
  -51.4683685      -3.18431592      -20.0000000       5549.88623      -1.57254922    
  -51.8859215      -1.67511594      -20.0000000       5549.88623      -1.57254922    
  -50.2854195      -1.59545600      -20.0000000       5549.88623      -1.57254922    
  -54.6488190       1.11988902      -20.0000000       1704.93860       1.56621003    
  -56.1067696       1.60355306      -20.0000000       1704.93860       1.56621003    
  -55.6295395       2.91055298      -20.0000000       1704.93860       1.56621003    
  -54.3531990       2.57653904      -20.0000000       1704.93860       1.56621003    
  -51.7686501     -0.191007897      -20.0000000       2313.08765      -1.57230246    
  -51.8859215      -1.67511594      -20.0000000       2313.08765      -1.57230246    
  -53.3087082     -0.726661325      -20.0000000       2313.08765      -1.57230246    
  -53.3087082     -0.726661325      -20.0000000       2313.08765      -1.57230246    
  -51.7686501     -0.191007897      -20.0000000       1011.55530       1.56934333    
  -53.3087082     -0.726661325      -20.0000000       1011.55530       1.56934333    
  -53.2043991       1.01675200      -20.0000000       1011.55530       1.56934333    
  -51.7500000       1.29565406      -20.0000000       1011.55530       1.56934333    
  -53.0367393       2.70281792      -20.0000000       3552.86646       1.56870770    
  -53.2043991       1.01675200      -20.0000000       3552.86646       1.56870770    
  -54.6488190       1.11988902      -20.0000000       3552.86646       1.56870770    
  -54.3531990       2.57653904      -20.0000000       3552.86646       1.56870770    
  -45.7804108      -6.25000000      -20.0000000       13752.9902       1.57230484    
  -47.2866096      -6.25000000      -20.0000000       13752.9902       1.57230484    
  -47.2626686      -4.68801212      -20.0000000       13752.9902       1.57230484    
  -45.7679100      -4.68779421      -20.0000000       13752.9902       1.57230484    
  -47.2626686      -4.68801212      -20.0000000       3621.72388      -1.57491517    
  -48.7387619      -4.69004917      -20.0000000       3621.72388      -1.57491517    
  -48.7254105      -3.12169194      -20.0000000       3621.72388      -1.57491517    
  -47.2550507      -3.12222195      -20.0000000       3621.72388      -1.57491517    
  -54.5736809       4.04919481      -20.0000000       7344.44873      -1.56885481    
  -55.6295395       2.91055298      -20.0000000       7344.44873      -1.56885481    
  -56.8836594       3.56473303      -20.0000000       7344.44873      -1.56885481    
  -55.8850899       4.68635893      -20.0000000       7344.44873      -1.56885481    
  -48.7254105      -3.12169194      -20.0000000       5652.06006      -1.57246065    
  -50.1564102      -3.12996602      -20.0000000       5652.06006      -1.57246065    
  -50.2854195      -1.59545600      -20.0000000       5652.06006      -1.57246065    
  -48.7658615      -1.56390297      -20.0000000       5652.06006      -1.57246065    
  -50.2854195      -1.59545600      -20.0000000       2631.28833      -1.57218897    
  -51.8859215      -1.67511594      -20.0000000       2631.28833      -1.57218897    
  -51.7686501     -0.191007897      -20.0000000       2631.28833      -1.57218897    
  -50.2816200      -7.23225027E-02  -20.0000000       2631.28833      -1.57218897    
  -55.6295395       2.91055298      -20.0000000       864.434204       1.55666721    
  -54.5736809       4.04919481      -20.0000000       864.434204       1.55666721    
  -54.3531990       2.57653904      -20.0000000       864.434204       1.55666721    
  -54.3531990       2.57653904      -20.0000000       864.434204       1.55666721    
  -51.6464691       2.90894699      -20.0000000       4626.93848       1.56903636    
  -51.7500000       1.29565406      -20.0000000       4626.93848       1.56903636    
  -53.2043991       1.01675200      -20.0000000       4626.93848       1.56903636    
  -53.0367393       2.70281792      -20.0000000       4626.93848       1.56903636    
  -44.2742119      -6.25000000      -20.0000000       14202.2012       1.57216263    
  -45.7804108      -6.25000000      -20.0000000       14202.2012       1.57216263    
  -45.7679100      -4.68779421      -20.0000000       14202.2012       1.57216263    
  -44.2670212      -4.68766403      -20.0000000       14202.2012       1.57216263    
  -45.7679100      -4.68779421      -20.0000000       3326.71973      -1.57498538    
  -47.2626686      -4.68801212      -20.0000000       3326.71973      -1.57498538    
  -47.2550507      -3.12222195      -20.0000000       3326.71973      -1.57498538    
  -45.7611885      -3.12411094      -20.0000000       3326.71973      -1.57498538    
  -51.7500000       1.29565406      -20.0000000       1880.30371       1.56939888    
  -50.2459984       1.47492099      -20.0000000       1880.30371       1.56939888    
  -50.2816200      -7.23225027E-02  -20.0000000       1880.30371       1.56939888    
  -51.7686501     -0.191007897      -20.0000000       1880.30371       1.56939888    
  -47.2550507      -3.12222195      -20.0000000       5592.01270      -1.57239342    
  -48.7254105      -3.12169194      -20.0000000       5592.01270      -1.57239342    
  -48.7658615      -1.56390297      -20.0000000       5592.01270      -1.57239342    
  -47.2643318      -1.55986798      -20.0000000       5592.01270      -1.57239342    
  -48.7658615      -1.56390297      -20.0000000       2491.21631      -1.57210982    
  -50.2854195      -1.59545600      -20.0000000       2491.21631      -1.57210982    
  -50.2816200      -7.23225027E-02  -20.0000000       2491.21631      -1.57210982    
  -48.7753716      -1.42937005E-02  -20.0000000       2491.21631      -1.57210982    
  -54.5736809       4.04919481      -20.0000000       2707.73804       1.56574869    
  -53.0954399       4.36336088      -20.0000000       2707.73804       1.56574869    
  -53.0367393       2.70281792      -20.0000000       2707.73804       1.56574869    
  -54.3531990       2.57653904      -20.0000000       2707.73804       1.56574869    
  -54.6465797       5.53822613      -20.0000000       13488.5469      -1.56943262    
  -54.5736809       4.04919481      -20.0000000       13488.5469      -1.56943262    
  -55.8850899       4.68635893      -20.0000000       13488.5469      -1.56943262    
  -55.8850899       4.68635893      -20.0000000       13488.5469      -1.56943262    
  -44.2670212      -4.68766403      -20.0000000       14517.5391       1.57202077    
  -42.7620697      -4.68767691      -20.0000000       14517.5391       1.57202077    
  -42.7680206      -6.25000000      -20.0000000       14517.5391       1.57202077    
  -44.2742119      -6.25000000      -20.0000000       14517.5391       1.57202077    
  -44.2670212      -4.68766403      -20.0000000       3061.82373      -1.57495010    
  -45.7679100      -4.68779421      -20.0000000       3061.82373      -1.57495010    
  -45.7611885      -3.12411094      -20.0000000       3061.82373      -1.57495010    
  -44.2611694      -3.12488103      -20.0000000       3061.82373      -1.57495010    
  -45.7611885      -3.12411094      -20.0000000       5463.99463      -1.57231045    
  -47.2550507      -3.12222195      -20.0000000       5463.99463      -1.57231045    
  -47.2643318      -1.55986798      -20.0000000       5463.99463      -1.57231045    
  -45.7603798      -1.56126106      -20.0000000       5463.99463      -1.57231045    
  -50.2459984       1.47492099      -20.0000000       5316.91748       1.56910729    
  -51.7500000       1.29565406      -20.0000000       5316.91748       1.56910729    
  -51.6464691       2.90894699      -20.0000000       5316.91748       1.56910729    
  -50.2011604       3.04989505      -20.0000000       5316.91748       1.56910729    
  -54.6465797       5.53822613      -20.0000000       9843.66113      -1.56876588    
  -53.2416306       6.06926107      -20.0000000       9843.66113      -1.56876588    
  -53.0954399       4.36336088      -20.0000000       9843.66113      -1.56876588    
  -54.5736809       4.04919481      -20.0000000       9843.66113      -1.56876588    
  -47.2643318      -1.55986798      -20.0000000       2397.57080      -1.57204556    
  -48.7658615      -1.56390297      -20.0000000       2397.57080      -1.57204556    
  -48.7753716      -1.42937005E-02  -20.0000000       2397.57080      -1.57204556    
  -47.2657204       0.00000000      -20.0000000       2397.57080      -1.57204556    
  -48.7753716      -1.42937005E-02  -20.0000000       2205.92261       1.56945038    
  -50.2816200      -7.23225027E-02  -20.0000000       2205.92261       1.56945038    
  -50.2459984       1.47492099      -20.0000000       2205.92261       1.56945038    
  -48.7560692       1.53868604      -20.0000000       2205.92261       1.56945038    
  -51.6464691       2.90894699      -20.0000000       3965.05322       1.56706607    
  -53.0367393       2.70281792      -20.0000000       3965.05322       1.56706607    
  -53.0954399       4.36336088      -20.0000000       3965.05322       1.56706607    
  -51.6648903       4.56408405      -20.0000000       3965.05322       1.56706607    
  -41.2618294      -6.25000000      -20.0000000       14731.8721       1.57187510    
  -42.7680206      -6.25000000      -20.0000000       14731.8721       1.57187510    
  -42.7620697      -4.68767691      -20.0000000       14731.8721       1.57187510    
  -41.2566490      -4.68782711      -20.0000000       14731.8721       1.57187510    
  -44.2611694      -3.12488103      -20.0000000       2857.50439      -1.57477927    
  -42.7563400      -3.12513494      -20.0000000       2857.50439      -1.57477927    
  -42.7620697      -4.68767691      -20.0000000       2857.50439      -1.57477927    
  -44.2670212      -4.68766403      -20.0000000       2857.50439      -1.57477927    
  -44.2611694      -3.12488103      -20.0000000       5330.62891      -1.57219660    
  -45.7611885      -3.12411094      -20.0000000       5330.62891      -1.57219660    
  -45.7603798      -1.56126106      -20.0000000       5330.62891      -1.57219660    
  -44.2565308      -1.56226599      -20.0000000       5330.62891      -1.57219660    
  -45.7603798      -1.56126106      -20.0000000       2348.77783      -1.57196558    
  -47.2643318      -1.55986798      -20.0000000       2348.77783      -1.57196558    
  -47.2657204       0.00000000      -20.0000000       2348.77783      -1.57196558    
  -45.7582893       0.00000000      -20.0000000       2348.77783      -1.57196558    
  -47.2657204       0.00000000      -20.0000000       2310.32886       1.56951153    
  -48.7753716      -1.42937005E-02  -20.0000000       2310.32886       1.56951153    
  -48.7560692       1.53868604      -20.0000000       2310.32886       1.56951153    
  -47.2535896       1.55706894      -20.0000000       2310.32886       1.56951153    
  -48.7560692       1.53868604      -20.0000000       5558.83838       1.56913626    
  -50.2459984       1.47492099      -20.0000000       5558.83838       1.56913626    
  -50.2011604       3.04989505      -20.0000000       5558.83838       1.56913626    
  -48.7281189       3.10503101      -20.0000000       5558.83838       1.56913626    
  -50.2011604       3.04989505      -20.0000000       4166.62305       1.56708145    
  -51.6464691       2.90894699      -20.0000000       4166.62305       1.56708145    
  -51.6648903       4.56408405      -20.0000000       4166.62305       1.56708145    
  -50.2067184       4.64797401      -20.0000000       4166.62305       1.56708145    
  -51.6648903       4.56408405      -20.0000000       10469.8330      -1.56870627    
  -53.0954399       4.36336088      -20.0000000       10469.8330      -1.56870627    
  -53.2416306       6.06926107      -20.0000000       10469.8330      -1.56870627    
  -51.7500000       6.25000000      -20.0000000       10469.8330      -1.56870627    
  -39.7556496      -6.25000000      -20.0000000       14859.9668       1.57172620    
  -41.2618294      -6.25000000      -20.0000000       14859.9668       1.57172620    
  -41.2566490      -4.68782711      -20.0000000       14859.9668       1.57172620    
  -39.7507591      -4.68851089      -20.0000000       14859.9668       1.57172620    
  -41.2566490      -4.68782711      -20.0000000       2713.73169      -1.57448387    
  -42.7620697      -4.68767691      -20.0000000       2713.73169      -1.57448387    
  -42.7563400      -3.12513494      -20.0000000       2713.73169      -1.57448387    
  -41.2511406      -3.12541890      -20.0000000       2713.73169      -1.57448387    
  -44.2565308      -1.56226599      -20.0000000       5221.10547      -1.57205975    
  -42.7509499      -1.56253600      -20.0000000       5221.10547      -1.57205975    
  -42.7563400      -3.12513494      -20.0000000       5221.10547      -1.57205975    
  -44.2611694      -3.12488103      -20.0000000       5221.10547      -1.57205975    
  -44.2565308      -1.56226599      -20.0000000       2305.65015      -1.57186472    
  -45.7603798      -1.56126106      -20.0000000       2305.65015      -1.57186472    
  -45.7582893       0.00000000      -20.0000000       2305.65015      -1.57186472    
  -44.2515602       0.00000000      -20.0000000       2305.65015      -1.57186472    
  -45.7582893       0.00000000      -20.0000000       2320.30591       1.56960177    
  -47.2657204       0.00000000      -20.0000000       2320.30591       1.56960177    
  -47.2535896       1.55706894      -20.0000000       2320.30591       1.56960177    
  -45.7509003       1.56100297      -20.0000000       2320.30591       1.56960177    
  -47.2535896       1.55706894      -20.0000000       5546.61816       1.56918705    
  -48.7560692       1.53868604      -20.0000000       5546.61816       1.56918705    
  -48.7281189       3.10503101      -20.0000000       5546.61816       1.56918705    
  -47.2370110       3.11982203      -20.0000000       5546.61816       1.56918705    
  -48.7281189       3.10503101      -20.0000000       3931.75317       1.56685650    
  -50.2011604       3.04989505      -20.0000000       3931.75317       1.56685650    
  -50.2067184       4.64797401      -20.0000000       3931.75317       1.56685650    
  -48.7241211       4.67746210      -20.0000000       3931.75317       1.56685650    
  -50.2067184       4.64797401      -20.0000000       11397.4521      -1.56881499    
  -51.6648903       4.56408405      -20.0000000       11397.4521      -1.56881499    
  -51.7500000       6.25000000      -20.0000000       11397.4521      -1.56881499    
  -50.2455711       6.25000000      -20.0000000       11397.4521      -1.56881499    
  -38.2494698      -6.25000000      -20.0000000       14924.8896       1.57157958    
  -39.7556496      -6.25000000      -20.0000000       14924.8896       1.57157958    
  -39.7507591      -4.68851089      -20.0000000       14924.8896       1.57157958    
  -38.2446404      -4.68936491      -20.0000000       14924.8896       1.57157958    
  -39.7507591      -4.68851089      -20.0000000       2619.43677      -1.57409608    
  -41.2566490      -4.68782711      -20.0000000       2619.43677      -1.57409608    
  -41.2511406      -3.12541890      -20.0000000       2619.43677      -1.57409608    
  -39.7453995      -3.12673903      -20.0000000       2619.43677      -1.57409608    
  -41.2511406      -3.12541890      -20.0000000       5137.04590      -1.57191312    
  -42.7563400      -3.12513494      -20.0000000       5137.04590      -1.57191312    
  -42.7509499      -1.56253600      -20.0000000       5137.04590      -1.57191312    
  -41.2455711      -1.56282198      -20.0000000       5137.04590      -1.57191312    
  -44.2515602       0.00000000      -20.0000000       2271.25684      -1.57174897    
  -42.7457504       0.00000000      -20.0000000       2271.25684      -1.57174897    
  -42.7509499      -1.56253600      -20.0000000       2271.25684      -1.57174897    
  -44.2565308      -1.56226599      -20.0000000       2271.25684      -1.57174897    
  -44.2515602       0.00000000      -20.0000000       2294.18628       1.56970942    
  -45.7582893       0.00000000      -20.0000000       2294.18628       1.56970942    
  -45.7509003       1.56100297      -20.0000000       2294.18628       1.56970942    
  -44.2452011       1.56199801      -20.0000000       2294.18628       1.56970942    
  -45.7509003       1.56100297      -20.0000000       5444.76953       1.56927252    
  -47.2535896       1.55706894      -20.0000000       5444.76953       1.56927252    
  -47.2370110       3.11982203      -20.0000000       5444.76953       1.56927252    
  -45.7402802       3.12332392      -20.0000000       5444.76953       1.56927252    
  -47.2370110       3.11982203      -20.0000000       3605.20190       1.56665790    
  -48.7281189       3.10503101      -20.0000000       3605.20190       1.56665790    
  -48.7241211       4.67746210      -20.0000000       3605.20190       1.56665790    
  -47.2300911       4.68496799      -20.0000000       3605.20190       1.56665790    
  -48.7241211       4.67746210      -20.0000000       12345.8262      -1.56897783    
  -50.2067184       4.64797401      -20.0000000       12345.8262      -1.56897783    
  -50.2455711       6.25000000      -20.0000000       12345.8262      -1.56897783    
  -48.7411499       6.25000000      -20.0000000       12345.8262      -1.56897783    
  -36.7432899      -6.25000000      -20.0000000       14932.1504       1.57144392    
  -38.2494698      -6.25000000      -20.0000000       14932.1504       1.57144392    
  -38.2446404      -4.68936491      -20.0000000       14932.1504       1.57144392    
  -36.7384796      -4.68897390      -20.0000000       14932.1504       1.57144392    
  -38.2446404      -4.68936491      -20.0000000       2563.57935      -1.57366347    
  -39.7507591      -4.68851089      -20.0000000       2563.57935      -1.57366347    
  -39.7453995      -3.12673903      -20.0000000       2563.57935      -1.57366347    
  -38.2396507      -3.12933803      -20.0000000       2563.57935      -1.57366347    
  -39.7453995      -3.12673903      -20.0000000       5082.90332      -1.57176518    
  -41.2511406      -3.12541890      -20.0000000       5082.90332      -1.57176518    
  -41.2455711      -1.56282198      -20.0000000       5082.90332      -1.57176518    
  -39.7399902      -1.56351995      -20.0000000       5082.90332      -1.57176518    
  -41.2455711      -1.56282198      -20.0000000       2242.51831      -1.57163179    
  -42.7509499      -1.56253600      -20.0000000       2242.51831      -1.57163179    
  -42.7457504       0.00000000      -20.0000000       2242.51831      -1.57163179    
  -41.2401695       0.00000000      -20.0000000       2242.51831      -1.57163179    
  -44.2452011       1.56199801      -20.0000000       2277.39819       1.56983364    
  -42.7402611       1.56238496      -20.0000000       2277.39819       1.56983364    
  -42.7457504       0.00000000      -20.0000000       2277.39819       1.56983364    
  -44.2515602       0.00000000      -20.0000000       2277.39819       1.56983364    
  -44.2452011       1.56199801      -20.0000000       5330.13916       1.56939137    
  -45.7509003       1.56100297      -20.0000000       5330.13916       1.56939137    
  -45.7402802       3.12332392      -20.0000000       5330.13916       1.56939137    
  -44.2380295       3.12447906      -20.0000000       5330.13916       1.56939137    
  -45.7402802       3.12332392      -20.0000000       3305.96997       1.56657660    
  -47.2370110       3.11982203      -20.0000000       3305.96997       1.56657660    
  -47.2300911       4.68496799      -20.0000000       3305.96997       1.56657660    
  -45.7329903       4.68700409      -20.0000000       3305.96997       1.56657660    
  -47.2300911       4.68496799      -20.0000000       13159.9385      -1.56913996    
  -48.7241211       4.67746210      -20.0000000       13159.9385      -1.56913996    
  -48.7411499       6.25000000      -20.0000000       13159.9385      -1.56913996    
  -47.2367287       6.25000000      -20.0000000       13159.9385      -1.56913996    
  -35.2371101      -6.25000000      -20.0000000       14887.8760       1.57132924    
  -36.7432899      -6.25000000      -20.0000000       14887.8760       1.57132924    
  -36.7384796      -4.68897390      -20.0000000       14887.8760       1.57132924    
  -35.2325211      -4.68835878      -20.0000000       14887.8760       1.57132924    
  -36.7384796      -4.68897390      -20.0000000       2552.51245      -1.57321560    
  -38.2446404      -4.68936491      -20.0000000       2552.51245      -1.57321560    
  -38.2396507      -3.12933803      -20.0000000       2552.51245      -1.57321560    
  -36.7339096      -3.12783909      -20.0000000       2552.51245      -1.57321560    
  -38.2396507      -3.12933803      -20.0000000       5053.17822      -1.57162440    
  -39.7453995      -3.12673903      -20.0000000       5053.17822      -1.57162440    
  -39.7399902      -1.56351995      -20.0000000       5053.17822      -1.57162440    
  -38.2346497      -1.56438303      -20.0000000       5053.17822      -1.57162440    
  -39.7399902      -1.56351995      -20.0000000       2221.82593      -1.57151628    
  -41.2455711      -1.56282198      -20.0000000       2221.82593      -1.57151628    
  -41.2401695       0.00000000      -20.0000000       2221.82593      -1.57151628    