 VARIABLES="X" "Y" "Z" "abs(p) (Pa)" "angle(p) (rad)"
ZONE N=   3650,E =    3624, F=FEPOINT, ET=QUADRILATERAL
  -56.5164909      -2.47323704      -20.0000000       5518.00977       1.69931650    
  -55.4176407      -3.26747894      -20.0000000       5518.00977       1.69931650    
  -55.9264717      -4.64953518      -20.0000000       5518.00977       1.69931650    
  -56.9148483      -3.51935697      -20.0000000       5518.00977       1.69931650    
  -56.9148483      -3.51935697      -20.0000000       5271.99463       1.70200765    
  -57.6058807      -2.18402195      -20.0000000       5271.99463       1.70200765    
  -56.5164909      -2.47323704      -20.0000000       5271.99463       1.70200765    
  -56.5164909      -2.47323704      -20.0000000       5271.99463       1.70200765    
  -54.6953812      -5.51239681      -20.0000000       6415.70410       1.66889632    
  -55.9264717      -4.64953518      -20.0000000       6415.70410       1.66889632    
  -55.4176407      -3.26747894      -20.0000000       6415.70410       1.66889632    
  -54.2450790      -3.94889998      -20.0000000       6415.70410       1.66889632    
  -54.2450790      -3.94889998      -20.0000000       7353.34033       1.62491298    
  -52.9834785      -4.46340179      -20.0000000       7353.34033       1.62491298    
  -53.2955093      -6.05576801      -20.0000000       7353.34033       1.62491298    
  -54.6953812      -5.51239681      -20.0000000       7353.34033       1.62491298    
  -56.5223999      -1.11500299      -20.0000000       2374.80640       1.74046731    
  -56.5164909      -2.47323704      -20.0000000       2374.80640       1.74046731    
  -57.6058807      -2.18402195      -20.0000000       2374.80640       1.74046731    
  -57.9577713     -0.724482894      -20.0000000       2374.80640       1.74046731    
  -56.5164909      -2.47323704      -20.0000000       1372.66016       1.84412098    
  -56.5223999      -1.11500299      -20.0000000       1372.66016       1.84412098    
  -55.1657600      -1.76926601      -20.0000000       1372.66016       1.84412098    
  -55.4176407      -3.26747894      -20.0000000       1372.66016       1.84412098    
  -54.2450790      -3.94889998      -20.0000000       979.930176       1.89957416    
  -55.4176407      -3.26747894      -20.0000000       979.930176       1.89957416    
  -55.1657600      -1.76926601      -20.0000000       979.930176       1.89957416    
  -53.8819199      -2.32836604      -20.0000000       979.930176       1.89957416    
  -52.9834785      -4.46340179      -20.0000000       8091.10986       1.57646382    
  -51.6155815      -4.69134283      -20.0000000       8091.10986       1.57646382    
  -51.8049088      -6.24783087      -20.0000000       8091.10986       1.57646382    
  -53.2955093      -6.05576801      -20.0000000       8091.10986       1.57646382    
  -56.3964119      0.254809886      -20.0000000       185.136658       1.85011017    
  -56.5223999      -1.11500299      -20.0000000       185.136658       1.85011017    
  -57.9577713     -0.724482894      -20.0000000       185.136658       1.85011017    
  -57.9511719      0.779103875      -20.0000000       185.136658       1.85011017    
  -53.8819199      -2.32836604      -20.0000000       858.711609       1.79569149    
  -52.7235603      -2.92538095      -20.0000000       858.711609       1.79569149    
  -52.9834785      -4.46340179      -20.0000000       858.711609       1.79569149    
  -54.2450790      -3.94889998      -20.0000000       858.711609       1.79569149    
  -56.5223999      -1.11500299      -20.0000000       232.927567       2.11716008    
  -56.3964119      0.254809886      -20.0000000       232.927567       2.11716008    
  -54.8835487     -0.325594515      -20.0000000       232.927567       2.11716008    
  -55.1657600      -1.76926601      -20.0000000       232.927567       2.11716008    
  -50.2990494      -6.25000000      -20.0000000       8346.89648       1.52835464    
  -51.8049088      -6.24783087      -20.0000000       8346.89648       1.52835464    
  -51.6155815      -4.69134283      -20.0000000       8346.89648       1.52835464    
  -50.1911316      -4.70199823      -20.0000000       8346.89648       1.52835464    
  -53.8819199      -2.32836604      -20.0000000       211.379089      -2.16513658    
  -55.1657600      -1.76926601      -20.0000000       211.379089      -2.16513658    
  -54.8835487     -0.325594515      -20.0000000       211.379089      -2.16513658    
  -53.3087082     -0.726661325      -20.0000000       211.379089      -2.16513658    
  -52.7235603      -2.92538095      -20.0000000       895.169128       1.56220365    
  -51.4683685      -3.18431592      -20.0000000       895.169128       1.56220365    
  -51.6155815      -4.69134283      -20.0000000       895.169128       1.56220365    
  -52.9834785      -4.46340179      -20.0000000       895.169128       1.56220365    
  -56.1067696       1.60355306      -20.0000000       1683.13538      -1.39933765    
  -56.3964119      0.254809886      -20.0000000       1683.13538      -1.39933765    
  -57.9511719      0.779103875      -20.0000000       1683.13538      -1.39933765    
  -57.5863686       2.23558092      -20.0000000       1683.13538      -1.39933765    
  -56.3964119      0.254809886      -20.0000000       158.406586     -0.952378869    
  -56.1067696       1.60355306      -20.0000000       158.406586     -0.952378869    
  -54.6488190       1.11988902      -20.0000000       158.406586     -0.952378869    
  -54.8835487     -0.325594515      -20.0000000       158.406586     -0.952378869    
  -51.8859215      -1.67511594      -20.0000000       582.477356      -1.67340255    
  -52.7235603      -2.92538095      -20.0000000       582.477356      -1.67340255    
  -53.8819199      -2.32836604      -20.0000000       582.477356      -1.67340255    
  -53.3087082     -0.726661325      -20.0000000       582.477356      -1.67340255    
  -48.7928200      -6.25000000      -20.0000000       8372.49707       1.48151219    
  -50.2990494      -6.25000000      -20.0000000       8372.49707       1.48151219    
  -50.1911316      -4.70199823      -20.0000000       8372.49707       1.48151219    
  -48.7387619      -4.69004917      -20.0000000       8372.49707       1.48151219    
  -50.1911316      -4.70199823      -20.0000000       817.508545       1.26570570    
  -51.6155815      -4.69134283      -20.0000000       817.508545       1.26570570    
  -51.4683685      -3.18431592      -20.0000000       817.508545       1.26570570    
  -50.1564102      -3.12996602      -20.0000000       817.508545       1.26570570    
  -54.6488190       1.11988902      -20.0000000       108.977142       1.43386972    
  -53.2043991       1.01675200      -20.0000000       108.977142       1.43386972    
  -53.3087082     -0.726661325      -20.0000000       108.977142       1.43386972    
  -54.8835487     -0.325594515      -20.0000000       108.977142       1.43386972    
  -51.4683685      -3.18431592      -20.0000000       662.245972      -1.53695393    
  -52.7235603      -2.92538095      -20.0000000       662.245972      -1.53695393    
  -51.8859215      -1.67511594      -20.0000000       662.245972      -1.53695393    
  -51.8859215      -1.67511594      -20.0000000       662.245972      -1.53695393    
  -55.6295395       2.91055298      -20.0000000       3624.85913      -1.41706264    
  -56.1067696       1.60355306      -20.0000000       3624.85913      -1.41706264    
  -57.5863686       2.23558092      -20.0000000       3624.85913      -1.41706264    
  -56.8836594       3.56473303      -20.0000000       3624.85913      -1.41706264    
  -47.2866096      -6.25000000      -20.0000000       8415.54785       1.43651032    
  -48.7928200      -6.25000000      -20.0000000       8415.54785       1.43651032    
  -48.7387619      -4.69004917      -20.0000000       8415.54785       1.43651032    
  -47.2626686      -4.68801212      -20.0000000       8415.54785       1.43651032    
  -48.7387619      -4.69004917      -20.0000000       759.127014      0.885894358    
  -50.1911316      -4.70199823      -20.0000000       759.127014      0.885894358    
  -50.1564102      -3.12996602      -20.0000000       759.127014      0.885894358    
  -48.7254105      -3.12169194      -20.0000000       759.127014      0.885894358    
  -50.1564102      -3.12996602      -20.0000000       926.011597      -1.43239021    
  -51.4683685      -3.18431592      -20.0000000       926.011597      -1.43239021    
  -51.8859215      -1.67511594      -20.0000000       926.011597      -1.43239021    
  -50.2854195      -1.59545600      -20.0000000       926.011597      -1.43239021    
  -54.6488190       1.11988902      -20.0000000       638.970886      -1.13932657    
  -56.1067696       1.60355306      -20.0000000       638.970886      -1.13932657    
  -55.6295395       2.91055298      -20.0000000       638.970886      -1.13932657    
  -54.3531990       2.57653904      -20.0000000       638.970886      -1.13932657    
  -51.7686501     -0.191007897      -20.0000000       435.979858      -1.58469391    
  -51.8859215      -1.67511594      -20.0000000       435.979858      -1.58469391    
  -53.3087082     -0.726661325      -20.0000000       435.979858      -1.58469391    
  -53.3087082     -0.726661325      -20.0000000       435.979858      -1.58469391    
  -51.7686501     -0.191007897      -20.0000000       218.577621       1.56896389    
  -53.3087082     -0.726661325      -20.0000000       218.577621       1.56896389    
  -53.2043991       1.01675200      -20.0000000       218.577621       1.56896389    
  -51.7500000       1.29565406      -20.0000000       218.577621       1.56896389    
  -53.0367393       2.70281792      -20.0000000       354.063782       1.22468758    
  -53.2043991       1.01675200      -20.0000000       354.063782       1.22468758    
  -54.6488190       1.11988902      -20.0000000       354.063782       1.22468758    
  -54.3531990       2.57653904      -20.0000000       354.063782       1.22468758    
  -45.7804108      -6.25000000      -20.0000000       8397.30859       1.39211845    
  -47.2866096      -6.25000000      -20.0000000       8397.30859       1.39211845    
  -47.2626686      -4.68801212      -20.0000000       8397.30859       1.39211845    
  -45.7679100      -4.68779421      -20.0000000       8397.30859       1.39211845    
  -47.2626686      -4.68801212      -20.0000000       880.589355      0.621060729    
  -48.7387619      -4.69004917      -20.0000000       880.589355      0.621060729    
  -48.7254105      -3.12169194      -20.0000000       880.589355      0.621060729    
  -47.2550507      -3.12222195      -20.0000000       880.589355      0.621060729    
  -54.5736809       4.04919481      -20.0000000       5557.64648      -1.45038211    
  -55.6295395       2.91055298      -20.0000000       5557.64648      -1.45038211    
  -56.8836594       3.56473303      -20.0000000       5557.64648      -1.45038211    
  -55.8850899       4.68635893      -20.0000000       5557.64648      -1.45038211    
  -48.7254105      -3.12169194      -20.0000000       1081.71741      -1.32057822    
  -50.1564102      -3.12996602      -20.0000000       1081.71741      -1.32057822    
  -50.2854195      -1.59545600      -20.0000000       1081.71741      -1.32057822    
  -48.7658615      -1.56390297      -20.0000000       1081.71741      -1.32057822    
  -50.2854195      -1.59545600      -20.0000000       570.916931      -1.49843836    
  -51.8859215      -1.67511594      -20.0000000       570.916931      -1.49843836    
  -51.7686501     -0.191007897      -20.0000000       570.916931      -1.49843836    
  -50.2816200      -7.23225027E-02  -20.0000000       570.916931      -1.49843836    
  -55.6295395       2.91055298      -20.0000000       1704.77161      -1.34662902    
  -54.5736809       4.04919481      -20.0000000       1704.77161      -1.34662902    
  -54.3531990       2.57653904      -20.0000000       1704.77161      -1.34662902    
  -54.3531990       2.57653904      -20.0000000       1704.77161      -1.34662902    
  -51.6464691       2.90894699      -20.0000000       725.318420       1.55707204    
  -51.7500000       1.29565406      -20.0000000       725.318420       1.55707204    
  -53.2043991       1.01675200      -20.0000000       725.318420       1.55707204    
  -53.0367393       2.70281792      -20.0000000       725.318420       1.55707204    
  -44.2742119      -6.25000000      -20.0000000       8281.11133       1.34711635    
  -45.7804108      -6.25000000      -20.0000000       8281.11133       1.34711635    
  -45.7679100      -4.68779421      -20.0000000       8281.11133       1.34711635    
  -44.2670212      -4.68766403      -20.0000000       8281.11133       1.34711635    
  -45.7679100      -4.68779421      -20.0000000       1040.97461      0.430636495    
  -47.2626686      -4.68801212      -20.0000000       1040.97461      0.430636495    
  -47.2550507      -3.12222195      -20.0000000       1040.97461      0.430636495    
  -45.7611885      -3.12411094      -20.0000000       1040.97461      0.430636495    
  -51.7500000       1.29565406      -20.0000000       417.533447       1.65541470    
  -50.2459984       1.47492099      -20.0000000       417.533447       1.65541470    
  -50.2816200      -7.23225027E-02  -20.0000000       417.533447       1.65541470    
  -51.7686501     -0.191007897      -20.0000000       417.533447       1.65541470    
  -47.2550507      -3.12222195      -20.0000000       1190.35815      -1.22485912    
  -48.7254105      -3.12169194      -20.0000000       1190.35815      -1.22485912    
  -48.7658615      -1.56390297      -20.0000000       1190.35815      -1.22485912    
  -47.2643318      -1.55986798      -20.0000000       1190.35815      -1.22485912    
  -48.7658615      -1.56390297      -20.0000000       590.452637      -1.42242610    
  -50.2854195      -1.59545600      -20.0000000       590.452637      -1.42242610    
  -50.2816200      -7.23225027E-02  -20.0000000       590.452637      -1.42242610    
  -48.7753716      -1.42937005E-02  -20.0000000       590.452637      -1.42242610    
  -54.5736809       4.04919481      -20.0000000       1057.68262      -1.35127234    
  -53.0954399       4.36336088      -20.0000000       1057.68262      -1.35127234    
  -53.0367393       2.70281792      -20.0000000       1057.68262      -1.35127234    
  -54.3531990       2.57653904      -20.0000000       1057.68262      -1.35127234    
  -54.6465797       5.53822613      -20.0000000       8734.95703      -1.49185514    
  -54.5736809       4.04919481      -20.0000000       8734.95703      -1.49185514    
  -55.8850899       4.68635893      -20.0000000       8734.95703      -1.49185514    
  -55.8850899       4.68635893      -20.0000000       8734.95703      -1.49185514    
  -44.2670212      -4.68766403      -20.0000000       8064.27295       1.30048895    
  -42.7620697      -4.68767691      -20.0000000       8064.27295       1.30048895    
  -42.7680206      -6.25000000      -20.0000000       8064.27295       1.30048895    
  -44.2742119      -6.25000000      -20.0000000       8064.27295       1.30048895    
  -44.2670212      -4.68766403      -20.0000000       1202.74951      0.256443739    
  -45.7679100      -4.68779421      -20.0000000       1202.74951      0.256443739    
  -45.7611885      -3.12411094      -20.0000000       1202.74951      0.256443739    
  -44.2611694      -3.12488103      -20.0000000       1202.74951      0.256443739    
  -45.7611885      -3.12411094      -20.0000000       1296.46057      -1.14539039    
  -47.2550507      -3.12222195      -20.0000000       1296.46057      -1.14539039    
  -47.2643318      -1.55986798      -20.0000000       1296.46057      -1.14539039    
  -45.7603798      -1.56126106      -20.0000000       1296.46057      -1.14539039    
  -50.2459984       1.47492099      -20.0000000       945.725647       1.69972444    
  -51.7500000       1.29565406      -20.0000000       945.725647       1.69972444    
  -51.6464691       2.90894699      -20.0000000       945.725647       1.69972444    
  -50.2011604       3.04989505      -20.0000000       945.725647       1.69972444    
  -54.6465797       5.53822613      -20.0000000       7309.06201      -1.51573181    
  -53.2416306       6.06926107      -20.0000000       7309.06201      -1.51573181    
  -53.0954399       4.36336088      -20.0000000       7309.06201      -1.51573181    
  -54.5736809       4.04919481      -20.0000000       7309.06201      -1.51573181    
  -47.2643318      -1.55986798      -20.0000000       606.317810      -1.35475874    
  -48.7658615      -1.56390297      -20.0000000       606.317810      -1.35475874    
  -48.7753716      -1.42937005E-02  -20.0000000       606.317810      -1.35475874    
  -47.2657204       0.00000000      -20.0000000       606.317810      -1.35475874    
  -48.7753716      -1.42937005E-02  -20.0000000       520.920349       1.73153722    
  -50.2816200      -7.23225027E-02  -20.0000000       520.920349       1.73153722    
  -50.2459984       1.47492099      -20.0000000       520.920349       1.73153722    
  -48.7560692       1.53868604      -20.0000000       520.920349       1.73153722    
  -51.6464691       2.90894699      -20.0000000       576.155884      -1.55076981    
  -53.0367393       2.70281792      -20.0000000       576.155884      -1.55076981    
  -53.0954399       4.36336088      -20.0000000       576.155884      -1.55076981    
  -51.6648903       4.56408405      -20.0000000       576.155884      -1.55076981    
  -41.2618294      -6.25000000      -20.0000000       7763.35645       1.25157249    
  -42.7680206      -6.25000000      -20.0000000       7763.35645       1.25157249    
  -42.7620697      -4.68767691      -20.0000000       7763.35645       1.25157249    
  -41.2566490      -4.68782711      -20.0000000       7763.35645       1.25157249    
  -44.2611694      -3.12488103      -20.0000000       1368.05237       8.25168118E-02
  -42.7563400      -3.12513494      -20.0000000       1368.05237       8.25168118E-02
  -42.7620697      -4.68767691      -20.0000000       1368.05237       8.25168118E-02
  -44.2670212      -4.68766403      -20.0000000       1368.05237       8.25168118E-02
  -44.2611694      -3.12488103      -20.0000000       1423.62048      -1.08967841    
  -45.7611885      -3.12411094      -20.0000000       1423.62048      -1.08967841    
  -45.7603798      -1.56126106      -20.0000000       1423.62048      -1.08967841    
  -44.2565308      -1.56226599      -20.0000000       1423.62048      -1.08967841    
  -45.7603798      -1.56126106      -20.0000000       635.801025      -1.29593909    
  -47.2643318      -1.55986798      -20.0000000       635.801025      -1.29593909    
  -47.2657204       0.00000000      -20.0000000       635.801025      -1.29593909    
  -45.7582893       0.00000000      -20.0000000       635.801025      -1.29593909    
  -47.2657204       0.00000000      -20.0000000       581.193054       1.79915369    
  -48.7753716      -1.42937005E-02  -20.0000000       581.193054       1.79915369    
  -48.7560692       1.53868604      -20.0000000       581.193054       1.79915369    
  -47.2535896       1.55706894      -20.0000000       581.193054       1.79915369    
  -48.7560692       1.53868604      -20.0000000       1076.40161       1.82051396    
  -50.2459984       1.47492099      -20.0000000       1076.40161       1.82051396    
  -50.2011604       3.04989505      -20.0000000       1076.40161       1.82051396    
  -48.7281189       3.10503101      -20.0000000       1076.40161       1.82051396    
  -50.2011604       3.04989505      -20.0000000       550.007080      -1.99772871    
  -51.6464691       2.90894699      -20.0000000       550.007080      -1.99772871    
  -51.6648903       4.56408405      -20.0000000       550.007080      -1.99772871    
  -50.2067184       4.64797401      -20.0000000       550.007080      -1.99772871    
  -51.6648903       4.56408405      -20.0000000       7676.99072      -1.56571984    
  -53.0954399       4.36336088      -20.0000000       7676.99072      -1.56571984    
  -53.2416306       6.06926107      -20.0000000       7676.99072      -1.56571984    
  -51.7500000       6.25000000      -20.0000000       7676.99072      -1.56571984    
  -39.7556496      -6.25000000      -20.0000000       7387.63916       1.19945204    
  -41.2618294      -6.25000000      -20.0000000       7387.63916       1.19945204    
  -41.2566490      -4.68782711      -20.0000000       7387.63916       1.19945204    
  -39.7507591      -4.68851089      -20.0000000       7387.63916       1.19945204    
  -41.2566490      -4.68782711      -20.0000000       1548.57422      -9.04598981E-02
  -42.7620697      -4.68767691      -20.0000000       1548.57422      -9.04598981E-02
  -42.7563400      -3.12513494      -20.0000000       1548.57422      -9.04598981E-02
  -41.2511406      -3.12541890      -20.0000000       1548.57422      -9.04598981E-02
  -44.2565308      -1.56226599      -20.0000000       1576.64832      -1.05887854    
  -42.7509499      -1.56253600      -20.0000000       1576.64832      -1.05887854    
  -42.7563400      -3.12513494      -20.0000000       1576.64832      -1.05887854    
  -44.2611694      -3.12488103      -20.0000000       1576.64832      -1.05887854    
  -44.2565308      -1.56226599      -20.0000000       673.406189      -1.24873400    
  -45.7603798      -1.56126106      -20.0000000       673.406189      -1.24873400    
  -45.7582893       0.00000000      -20.0000000       673.406189      -1.24873400    
  -44.2515602       0.00000000      -20.0000000       673.406189      -1.24873400    
  -45.7582893       0.00000000      -20.0000000       628.206116       1.85359037    
  -47.2657204       0.00000000      -20.0000000       628.206116       1.85359037    
  -47.2535896       1.55706894      -20.0000000       628.206116       1.85359037    
  -45.7509003       1.56100297      -20.0000000       628.206116       1.85359037    
  -47.2535896       1.55706894      -20.0000000       1182.07556       1.92165697    
  -48.7560692       1.53868604      -20.0000000       1182.07556       1.92165697    
  -48.7281189       3.10503101      -20.0000000       1182.07556       1.92165697    
  -47.2370110       3.11982203      -20.0000000       1182.07556       1.92165697    
  -48.7281189       3.10503101      -20.0000000       705.950806      -2.31253076    
  -50.2011604       3.04989505      -20.0000000       705.950806      -2.31253076    
  -50.2067184       4.64797401      -20.0000000       705.950806      -2.31253076    
  -48.7241211       4.67746210      -20.0000000       705.950806      -2.31253076    
  -50.2067184       4.64797401      -20.0000000       8010.76416      -1.61549222    
  -51.6648903       4.56408405      -20.0000000       8010.76416      -1.61549222    
  -51.7500000       6.25000000      -20.0000000       8010.76416      -1.61549222    
  -50.2455711       6.25000000      -20.0000000       8010.76416      -1.61549222    
  -38.2494698      -6.25000000      -20.0000000       6949.84033       1.14322114    
  -39.7556496      -6.25000000      -20.0000000       6949.84033       1.14322114    
  -39.7507591      -4.68851089      -20.0000000       6949.84033       1.14322114    
  -38.2446404      -4.68936491      -20.0000000       6949.84033       1.14322114    
  -39.7507591      -4.68851089      -20.0000000       1754.31628     -0.256724387    
  -41.2566490      -4.68782711      -20.0000000       1754.31628     -0.256724387    
  -41.2511406      -3.12541890      -20.0000000       1754.31628     -0.256724387    
  -39.7453995      -3.12673903      -20.0000000       1754.31628     -0.256724387    
  -41.2511406      -3.12541890      -20.0000000       1751.22144      -1.04848599    
  -42.7563400      -3.12513494      -20.0000000       1751.22144      -1.04848599    
  -42.7509499      -1.56253600      -20.0000000       1751.22144      -1.04848599    
  -41.2455711      -1.56282198      -20.0000000       1751.22144      -1.04848599    
  -44.2515602       0.00000000      -20.0000000       721.010071      -1.21625710    
  -42.7457504       0.00000000      -20.0000000       721.010071      -1.21625710    
  -42.7509499      -1.56253600      -20.0000000       721.010071      -1.21625710    
  -44.2565308      -1.56226599      -20.0000000       721.010071      -1.21625710    
  -44.2515602       0.00000000      -20.0000000       671.658569       1.89686656    
  -45.7582893       0.00000000      -20.0000000       671.658569       1.89686656    
  -45.7509003       1.56100297      -20.0000000       671.658569       1.89686656    
  -44.2452011       1.56199801      -20.0000000       671.658569       1.89686656    
  -45.7509003       1.56100297      -20.0000000       1295.12451       1.99970305    
  -47.2535896       1.55706894      -20.0000000       1295.12451       1.99970305    
  -47.2370110       3.11982203      -20.0000000       1295.12451       1.99970305    
  -45.7402802       3.12332392      -20.0000000       1295.12451       1.99970305    
  -47.2370110       3.11982203      -20.0000000       881.664734      -2.52727365    
  -48.7281189       3.10503101      -20.0000000       881.664734      -2.52727365    
  -48.7241211       4.67746210      -20.0000000       881.664734      -2.52727365    
  -47.2300911       4.68496799      -20.0000000       881.664734      -2.52727365    
  -48.7241211       4.67746210      -20.0000000       8257.72363      -1.66221774    
  -50.2067184       4.64797401      -20.0000000       8257.72363      -1.66221774    
  -50.2455711       6.25000000      -20.0000000       8257.72363      -1.66221774    
  -48.7411499       6.25000000      -20.0000000       8257.72363      -1.66221774    
  -36.7432899      -6.25000000      -20.0000000       6456.63818       1.08144200    
  -38.2494698      -6.25000000      -20.0000000       6456.63818       1.08144200    
  -38.2446404      -4.68936491      -20.0000000       6456.63818       1.08144200    
  -36.7384796      -4.68897390      -20.0000000       6456.63818       1.08144200    
  -38.2446404      -4.68936491      -20.0000000       1990.68604     -0.411744177    
  -39.7507591      -4.68851089      -20.0000000       1990.68604     -0.411744177    
  -39.7453995      -3.12673903      -20.0000000       1990.68604     -0.411744177    
  -38.2396507      -3.12933803      -20.0000000       1990.68604     -0.411744177    
  -39.7453995      -3.12673903      -20.0000000       1945.71069      -1.05411983    
  -41.2511406      -3.12541890      -20.0000000       1945.71069      -1.05411983    
  -41.2455711      -1.56282198      -20.0000000       1945.71069      -1.05411983    
  -39.7399902      -1.56351995      -20.0000000       1945.71069      -1.05411983    
  -41.2455711      -1.56282198      -20.0000000       776.106628      -1.19700181    
  -42.7509499      -1.56253600      -20.0000000       776.106628      -1.19700181    
  -42.7457504       0.00000000      -20.0000000       776.106628      -1.19700181    
  -41.2401695       0.00000000      -20.0000000       776.106628      -1.19700181    
  -44.2452011       1.56199801      -20.0000000       725.206848       1.92468059    
  -42.7402611       1.56238496      -20.0000000       725.206848       1.92468059    
  -42.7457504       0.00000000      -20.0000000       725.206848       1.92468059    
  -44.2515602       0.00000000      -20.0000000       725.206848       1.92468059    
  -44.2452011       1.56199801      -20.0000000       1428.53247       2.05232453    
  -45.7509003       1.56100297      -20.0000000       1428.53247       2.05232453    
  -45.7402802       3.12332392      -20.0000000       1428.53247       2.05232453    
  -44.2380295       3.12447906      -20.0000000       1428.53247       2.05232453    
  -45.7402802       3.12332392      -20.0000000       1046.31921      -2.71366096    
  -47.2370110       3.11982203      -20.0000000       1046.31921      -2.71366096    
  -47.2300911       4.68496799      -20.0000000       1046.31921      -2.71366096    
  -45.7329903       4.68700409      -20.0000000       1046.31921      -2.71366096    
  -47.2300911       4.68496799      -20.0000000       8391.67969      -1.70681715    
  -48.7241211       4.67746210      -20.0000000       8391.67969      -1.70681715    
  -48.7411499       6.25000000      -20.0000000       8391.67969      -1.70681715    
  -47.2367287       6.25000000      -20.0000000       8391.67969      -1.70681715    
  -35.2371101      -6.25000000      -20.0000000       5916.02783       1.01212454    
  -36.7432899      -6.25000000      -20.0000000       5916.02783       1.01212454    
  -36.7384796      -4.68897390      -20.0000000       5916.02783       1.01212454    
  -35.2325211      -4.68835878      -20.0000000       5916.02783       1.01212454    
  -36.7384796      -4.68897390      -20.0000000       2261.23804     -0.555759847    
  -38.2446404      -4.68936491      -20.0000000       2261.23804     -0.555759847    
  -38.2396507      -3.12933803      -20.0000000       2261.23804     -0.555759847    
  -36.7339096      -3.12783909      -20.0000000       2261.23804     -0.555759847    
  -38.2396507      -3.12933803      -20.0000000       2156.53223      -1.07105172    
  -39.7453995      -3.12673903      -20.0000000       2156.53223      -1.07105172    
  -39.7399902      -1.56351995      -20.0000000       2156.53223      -1.07105172    
  -38.2346497      -1.56438303      -20.0000000       2156.53223      -1.07105172    
  -39.7399902      -1.56351995      -20.0000000       838.375000      -1.18953550    
  -41.2455711      -1.56282198      -20.0000000       838.375000      -1.18953550    
  -41.2401695       0.00000000      -20.0000000       838.375000      -1.18953550    