 VARIABLES="X" "Y" "Z" "abs(p) (Pa)" "angle(p) (rad)"
ZONE N=   3650,E =    3624, F=FEPOINT, ET=QUADRILATERAL
  -56.5164909      -2.47323704      -20.0000000       3398.11865       1.56915891    
  -55.4176407      -3.26747894      -20.0000000       3398.11865       1.56915891    
  -55.9264717      -4.64953518      -20.0000000       3398.11865       1.56915891    
  -56.9148483      -3.51935697      -20.0000000       3398.11865       1.56915891    
  -56.9148483      -3.51935697      -20.0000000       2757.04175       1.56921279    
  -57.6058807      -2.18402195      -20.0000000       2757.04175       1.56921279    
  -56.5164909      -2.47323704      -20.0000000       2757.04175       1.56921279    
  -56.5164909      -2.47323704      -20.0000000       2757.04175       1.56921279    
  -54.6953812      -5.51239681      -20.0000000       4259.10596       1.56916451    
  -55.9264717      -4.64953518      -20.0000000       4259.10596       1.56916451    
  -55.4176407      -3.26747894      -20.0000000       4259.10596       1.56916451    
  -54.2450790      -3.94889998      -20.0000000       4259.10596       1.56916451    
  -54.2450790      -3.94889998      -20.0000000       5022.16406       1.56919873    
  -52.9834785      -4.46340179      -20.0000000       5022.16406       1.56919873    
  -53.2955093      -6.05576801      -20.0000000       5022.16406       1.56919873    
  -54.6953812      -5.51239681      -20.0000000       5022.16406       1.56919873    
  -56.5223999      -1.11500299      -20.0000000       1500.14478       1.56912315    
  -56.5164909      -2.47323704      -20.0000000       1500.14478       1.56912315    
  -57.6058807      -2.18402195      -20.0000000       1500.14478       1.56912315    
  -57.9577713     -0.724482894      -20.0000000       1500.14478       1.56912315    
  -56.5164909      -2.47323704      -20.0000000       1799.42163       1.56893468    
  -56.5223999      -1.11500299      -20.0000000       1799.42163       1.56893468    
  -55.1657600      -1.76926601      -20.0000000       1799.42163       1.56893468    
  -55.4176407      -3.26747894      -20.0000000       1799.42163       1.56893468    
  -54.2450790      -3.94889998      -20.0000000       2331.64966       1.56889033    
  -55.4176407      -3.26747894      -20.0000000       2331.64966       1.56889033    
  -55.1657600      -1.76926601      -20.0000000       2331.64966       1.56889033    
  -53.8819199      -2.32836604      -20.0000000       2331.64966       1.56889033    
  -52.9834785      -4.46340179      -20.0000000       5601.62402       1.56925237    
  -51.6155815      -4.69134283      -20.0000000       5601.62402       1.56925237    
  -51.8049088      -6.24783087      -20.0000000       5601.62402       1.56925237    
  -53.2955093      -6.05576801      -20.0000000       5601.62402       1.56925237    
  -56.3964119      0.254809886      -20.0000000       160.293198       1.56900394    
  -56.5223999      -1.11500299      -20.0000000       160.293198       1.56900394    
  -57.9577713     -0.724482894      -20.0000000       160.293198       1.56900394    
  -57.9511719      0.779103875      -20.0000000       160.293198       1.56900394    
  -53.8819199      -2.32836604      -20.0000000       2870.05908       1.56891239    
  -52.7235603      -2.92538095      -20.0000000       2870.05908       1.56891239    
  -52.9834785      -4.46340179      -20.0000000       2870.05908       1.56891239    
  -54.2450790      -3.94889998      -20.0000000       2870.05908       1.56891239    
  -56.5223999      -1.11500299      -20.0000000       586.180054       1.56884360    
  -56.3964119      0.254809886      -20.0000000       586.180054       1.56884360    
  -54.8835487     -0.325594515      -20.0000000       586.180054       1.56884360    
  -55.1657600      -1.76926601      -20.0000000       586.180054       1.56884360    
  -50.2990494      -6.25000000      -20.0000000       5933.29980       1.56931615    
  -51.8049088      -6.24783087      -20.0000000       5933.29980       1.56931615    
  -51.6155815      -4.69134283      -20.0000000       5933.29980       1.56931615    
  -50.1911316      -4.70199823      -20.0000000       5933.29980       1.56931615    
  -53.8819199      -2.32836604      -20.0000000       993.132446       1.56875515    
  -55.1657600      -1.76926601      -20.0000000       993.132446       1.56875515    
  -54.8835487     -0.325594515      -20.0000000       993.132446       1.56875515    
  -53.3087082     -0.726661325      -20.0000000       993.132446       1.56875515    
  -52.7235603      -2.92538095      -20.0000000       3306.93555       1.56897068    
  -51.4683685      -3.18431592      -20.0000000       3306.93555       1.56897068    
  -51.6155815      -4.69134283      -20.0000000       3306.93555       1.56897068    
  -52.9834785      -4.46340179      -20.0000000       3306.93555       1.56897068    
  -56.1067696       1.60355306      -20.0000000       1143.56372      -1.57248676    
  -56.3964119      0.254809886      -20.0000000       1143.56372      -1.57248676    
  -57.9511719      0.779103875      -20.0000000       1143.56372      -1.57248676    
  -57.5863686       2.23558092      -20.0000000       1143.56372      -1.57248676    
  -56.3964119      0.254809886      -20.0000000       522.095032      -1.57277715    
  -56.1067696       1.60355306      -20.0000000       522.095032      -1.57277715    
  -54.6488190       1.11988902      -20.0000000       522.095032      -1.57277715    
  -54.8835487     -0.325594515      -20.0000000       522.095032      -1.57277715    
  -51.8859215      -1.67511594      -20.0000000       1474.00940       1.56876051    
  -52.7235603      -2.92538095      -20.0000000       1474.00940       1.56876051    
  -53.8819199      -2.32836604      -20.0000000       1474.00940       1.56876051    
  -53.3087082     -0.726661325      -20.0000000       1474.00940       1.56876051    
  -48.7928200      -6.25000000      -20.0000000       6116.69189       1.56939065    
  -50.2990494      -6.25000000      -20.0000000       6116.69189       1.56939065    
  -50.1911316      -4.70199823      -20.0000000       6116.69189       1.56939065    
  -48.7387619      -4.69004917      -20.0000000       6116.69189       1.56939065    
  -50.1911316      -4.70199823      -20.0000000       3500.69067       1.56904137    
  -51.6155815      -4.69134283      -20.0000000       3500.69067       1.56904137    
  -51.4683685      -3.18431592      -20.0000000       3500.69067       1.56904137    
  -50.1564102      -3.12996602      -20.0000000       3500.69067       1.56904137    
  -54.6488190       1.11988902      -20.0000000       187.863525      -1.57295549    
  -53.2043991       1.01675200      -20.0000000       187.863525      -1.57295549    
  -53.3087082     -0.726661325      -20.0000000       187.863525      -1.57295549    
  -54.8835487     -0.325594515      -20.0000000       187.863525      -1.57295549    
  -51.4683685      -3.18431592      -20.0000000       2099.99292       1.56883168    
  -52.7235603      -2.92538095      -20.0000000       2099.99292       1.56883168    
  -51.8859215      -1.67511594      -20.0000000       2099.99292       1.56883168    
  -51.8859215      -1.67511594      -20.0000000       2099.99292       1.56883168    
  -55.6295395       2.91055298      -20.0000000       2429.83325      -1.57247293    
  -56.1067696       1.60355306      -20.0000000       2429.83325      -1.57247293    
  -57.5863686       2.23558092      -20.0000000       2429.83325      -1.57247293    
  -56.8836594       3.56473303      -20.0000000       2429.83325      -1.57247293    
  -47.2866096      -6.25000000      -20.0000000       6255.08008       1.56948006    
  -48.7928200      -6.25000000      -20.0000000       6255.08008       1.56948006    
  -48.7387619      -4.69004917      -20.0000000       6255.08008       1.56948006    
  -47.2626686      -4.68801212      -20.0000000       6255.08008       1.56948006    
  -48.7387619      -4.69004917      -20.0000000       3561.23145       1.56913054    
  -50.1911316      -4.70199823      -20.0000000       3561.23145       1.56913054    
  -50.1564102      -3.12996602      -20.0000000       3561.23145       1.56913054    
  -48.7254105      -3.12169194      -20.0000000       3561.23145       1.56913054    
  -50.1564102      -3.12996602      -20.0000000       1934.72302       1.56886327    
  -51.4683685      -3.18431592      -20.0000000       1934.72302       1.56886327    
  -51.8859215      -1.67511594      -20.0000000       1934.72302       1.56886327    
  -50.2854195      -1.59545600      -20.0000000       1934.72302       1.56886327    
  -54.6488190       1.11988902      -20.0000000       1649.95764      -1.57273602    
  -56.1067696       1.60355306      -20.0000000       1649.95764      -1.57273602    
  -55.6295395       2.91055298      -20.0000000       1649.95764      -1.57273602    
  -54.3531990       2.57653904      -20.0000000       1649.95764      -1.57273602    
  -51.7686501     -0.191007897      -20.0000000       672.260132       1.56872773    
  -51.8859215      -1.67511594      -20.0000000       672.260132       1.56872773    
  -53.3087082     -0.726661325      -20.0000000       672.260132       1.56872773    
  -53.3087082     -0.726661325      -20.0000000       672.260132       1.56872773    
  -51.7686501     -0.191007897      -20.0000000       250.591278      -1.57295692    
  -53.3087082     -0.726661325      -20.0000000       250.591278      -1.57295692    
  -53.2043991       1.01675200      -20.0000000       250.591278      -1.57295692    
  -51.7500000       1.29565406      -20.0000000       250.591278      -1.57295692    
  -53.0367393       2.70281792      -20.0000000       1435.92395      -1.57283807    
  -53.2043991       1.01675200      -20.0000000       1435.92395      -1.57283807    
  -54.6488190       1.11988902      -20.0000000       1435.92395      -1.57283807    
  -54.3531990       2.57653904      -20.0000000       1435.92395      -1.57283807    
  -45.7804108      -6.25000000      -20.0000000       6350.68408       1.56958163    
  -47.2866096      -6.25000000      -20.0000000       6350.68408       1.56958163    
  -47.2626686      -4.68801212      -20.0000000       6350.68408       1.56958163    
  -45.7679100      -4.68779421      -20.0000000       6350.68408       1.56958163    
  -47.2626686      -4.68801212      -20.0000000       3637.75098       1.56925154    
  -48.7387619      -4.69004917      -20.0000000       3637.75098       1.56925154    
  -48.7254105      -3.12169194      -20.0000000       3637.75098       1.56925154    
  -47.2550507      -3.12222195      -20.0000000       3637.75098       1.56925154    
  -54.5736809       4.04919481      -20.0000000       3657.42700      -1.57244921    
  -55.6295395       2.91055298      -20.0000000       3657.42700      -1.57244921    
  -56.8836594       3.56473303      -20.0000000       3657.42700      -1.57244921    
  -55.8850899       4.68635893      -20.0000000       3657.42700      -1.57244921    
  -48.7254105      -3.12169194      -20.0000000       1959.68848       1.56896830    
  -50.1564102      -3.12996602      -20.0000000       1959.68848       1.56896830    
  -50.2854195      -1.59545600      -20.0000000       1959.68848       1.56896830    
  -48.7658615      -1.56390297      -20.0000000       1959.68848       1.56896830    
  -50.2854195      -1.59545600      -20.0000000       700.624573       1.56877041    
  -51.8859215      -1.67511594      -20.0000000       700.624573       1.56877041    
  -51.7686501     -0.191007897      -20.0000000       700.624573       1.56877041    
  -50.2816200      -7.23225027E-02  -20.0000000       700.624573       1.56877041    
  -55.6295395       2.91055298      -20.0000000       2679.92017      -1.57265890    
  -54.5736809       4.04919481      -20.0000000       2679.92017      -1.57265890    
  -54.3531990       2.57653904      -20.0000000       2679.92017      -1.57265890    
  -54.3531990       2.57653904      -20.0000000       2679.92017      -1.57265890    
  -51.6464691       2.90894699      -20.0000000       1553.71606      -1.57283068    
  -51.7500000       1.29565406      -20.0000000       1553.71606      -1.57283068    
  -53.2043991       1.01675200      -20.0000000       1553.71606      -1.57283068    
  -53.0367393       2.70281792      -20.0000000       1553.71606      -1.57283068    
  -44.2742119      -6.25000000      -20.0000000       6407.69434       1.56969213    
  -45.7804108      -6.25000000      -20.0000000       6407.69434       1.56969213    
  -45.7679100      -4.68779421      -20.0000000       6407.69434       1.56969213    
  -44.2670212      -4.68766403      -20.0000000       6407.69434       1.56969213    
  -45.7679100      -4.68779421      -20.0000000       3702.13208       1.56939125    
  -47.2626686      -4.68801212      -20.0000000       3702.13208       1.56939125    
  -47.2550507      -3.12222195      -20.0000000       3702.13208       1.56939125    
  -45.7611885      -3.12411094      -20.0000000       3702.13208       1.56939125    
  -51.7500000       1.29565406      -20.0000000       488.597870      -1.57285047    
  -50.2459984       1.47492099      -20.0000000       488.597870      -1.57285047    
  -50.2816200      -7.23225027E-02  -20.0000000       488.597870      -1.57285047    
  -51.7686501     -0.191007897      -20.0000000       488.597870      -1.57285047    
  -47.2550507      -3.12222195      -20.0000000       1999.51013       1.56910992    
  -48.7254105      -3.12169194      -20.0000000       1999.51013       1.56910992    
  -48.7658615      -1.56390297      -20.0000000       1999.51013       1.56910992    
  -47.2643318      -1.55986798      -20.0000000       1999.51013       1.56910992    
  -48.7658615      -1.56390297      -20.0000000       652.716919       1.56888223    
  -50.2854195      -1.59545600      -20.0000000       652.716919       1.56888223    
  -50.2816200      -7.23225027E-02  -20.0000000       652.716919       1.56888223    
  -48.7753716      -1.42937005E-02  -20.0000000       652.716919       1.56888223    
  -54.5736809       4.04919481      -20.0000000       2880.56934      -1.57268155    
  -53.0954399       4.36336088      -20.0000000       2880.56934      -1.57268155    
  -53.0367393       2.70281792      -20.0000000       2880.56934      -1.57268155    
  -54.3531990       2.57653904      -20.0000000       2880.56934      -1.57268155    
  -54.6465797       5.53822613      -20.0000000       4893.32324      -1.57236350    
  -54.5736809       4.04919481      -20.0000000       4893.32324      -1.57236350    
  -55.8850899       4.68635893      -20.0000000       4893.32324      -1.57236350    
  -55.8850899       4.68635893      -20.0000000       4893.32324      -1.57236350    
  -44.2670212      -4.68766403      -20.0000000       6434.20361       1.56980526    
  -42.7620697      -4.68767691      -20.0000000       6434.20361       1.56980526    
  -42.7680206      -6.25000000      -20.0000000       6434.20361       1.56980526    
  -44.2742119      -6.25000000      -20.0000000       6434.20361       1.56980526    
  -44.2670212      -4.68766403      -20.0000000       3746.52222       1.56954086    
  -45.7679100      -4.68779421      -20.0000000       3746.52222       1.56954086    
  -45.7611885      -3.12411094      -20.0000000       3746.52222       1.56954086    
  -44.2611694      -3.12488103      -20.0000000       3746.52222       1.56954086    
  -45.7611885      -3.12411094      -20.0000000       2037.82397       1.56927407    
  -47.2550507      -3.12222195      -20.0000000       2037.82397       1.56927407    
  -47.2643318      -1.55986798      -20.0000000       2037.82397       1.56927407    
  -45.7603798      -1.56126106      -20.0000000       2037.82397       1.56927407    
  -50.2459984       1.47492099      -20.0000000       1760.30139      -1.57275355    
  -51.7500000       1.29565406      -20.0000000       1760.30139      -1.57275355    
  -51.6464691       2.90894699      -20.0000000       1760.30139      -1.57275355    
  -50.2011604       3.04989505      -20.0000000       1760.30139      -1.57275355    
  -54.6465797       5.53822613      -20.0000000       4990.11426      -1.57240176    
  -53.2416306       6.06926107      -20.0000000       4990.11426      -1.57240176    
  -53.0954399       4.36336088      -20.0000000       4990.11426      -1.57240176    
  -54.5736809       4.04919481      -20.0000000       4990.11426      -1.57240176    
  -47.2643318      -1.55986798      -20.0000000       644.471497       1.56903529    
  -48.7658615      -1.56390297      -20.0000000       644.471497       1.56903529    
  -48.7753716      -1.42937005E-02  -20.0000000       644.471497       1.56903529    
  -47.2657204       0.00000000      -20.0000000       644.471497       1.56903529    
  -48.7753716      -1.42937005E-02  -20.0000000       584.132324      -1.57272911    
  -50.2816200      -7.23225027E-02  -20.0000000       584.132324      -1.57272911    
  -50.2459984       1.47492099      -20.0000000       584.132324      -1.57272911    
  -48.7560692       1.53868604      -20.0000000       584.132324      -1.57272911    
  -51.6464691       2.90894699      -20.0000000       3092.22681      -1.57265663    
  -53.0367393       2.70281792      -20.0000000       3092.22681      -1.57265663    
  -53.0954399       4.36336088      -20.0000000       3092.22681      -1.57265663    
  -51.6648903       4.56408405      -20.0000000       3092.22681      -1.57265663    
  -41.2618294      -6.25000000      -20.0000000       6441.02490       1.56991577    
  -42.7680206      -6.25000000      -20.0000000       6441.02490       1.56991577    
  -42.7620697      -4.68767691      -20.0000000       6441.02490       1.56991577    
  -41.2566490      -4.68782711      -20.0000000       6441.02490       1.56991577    
  -44.2611694      -3.12488103      -20.0000000       3772.44165       1.56968796    
  -42.7563400      -3.12513494      -20.0000000       3772.44165       1.56968796    
  -42.7620697      -4.68767691      -20.0000000       3772.44165       1.56968796    
  -44.2670212      -4.68766403      -20.0000000       3772.44165       1.56968796    
  -44.2611694      -3.12488103      -20.0000000       2066.06152       1.56944859    
  -45.7611885      -3.12411094      -20.0000000       2066.06152       1.56944859    
  -45.7603798      -1.56126106      -20.0000000       2066.06152       1.56944859    
  -44.2565308      -1.56226599      -20.0000000       2066.06152       1.56944859    
  -45.7603798      -1.56126106      -20.0000000       653.508118       1.56921315    
  -47.2643318      -1.55986798      -20.0000000       653.508118       1.56921315    
  -47.2657204       0.00000000      -20.0000000       653.508118       1.56921315    
  -45.7582893       0.00000000      -20.0000000       653.508118       1.56921315    
  -47.2657204       0.00000000      -20.0000000       630.211609      -1.57257247    
  -48.7753716      -1.42937005E-02  -20.0000000       630.211609      -1.57257247    
  -48.7560692       1.53868604      -20.0000000       630.211609      -1.57257247    
  -47.2535896       1.55706894      -20.0000000       630.211609      -1.57257247    
  -48.7560692       1.53868604      -20.0000000       1907.35657      -1.57263458    
  -50.2459984       1.47492099      -20.0000000       1907.35657      -1.57263458    
  -50.2011604       3.04989505      -20.0000000       1907.35657      -1.57263458    
  -48.7281189       3.10503101      -20.0000000       1907.35657      -1.57263458    
  -50.2011604       3.04989505      -20.0000000       3329.99707      -1.57257831    
  -51.6464691       2.90894699      -20.0000000       3329.99707      -1.57257831    
  -51.6648903       4.56408405      -20.0000000       3329.99707      -1.57257831    
  -50.2067184       4.64797401      -20.0000000       3329.99707      -1.57257831    
  -51.6648903       4.56408405      -20.0000000       5487.32178      -1.57235408    
  -53.0954399       4.36336088      -20.0000000       5487.32178      -1.57235408    
  -53.2416306       6.06926107      -20.0000000       5487.32178      -1.57235408    
  -51.7500000       6.25000000      -20.0000000       5487.32178      -1.57235408    
  -39.7556496      -6.25000000      -20.0000000       6435.27783       1.57002032    
  -41.2618294      -6.25000000      -20.0000000       6435.27783       1.57002032    
  -41.2566490      -4.68782711      -20.0000000       6435.27783       1.57002032    
  -39.7507591      -4.68851089      -20.0000000       6435.27783       1.57002032    
  -41.2566490      -4.68782711      -20.0000000       3784.80908       1.56982601    
  -42.7620697      -4.68767691      -20.0000000       3784.80908       1.56982601    
  -42.7563400      -3.12513494      -20.0000000       3784.80908       1.56982601    
  -41.2511406      -3.12541890      -20.0000000       3784.80908       1.56982601    
  -44.2565308      -1.56226599      -20.0000000       2083.50269       1.56961966    
  -42.7509499      -1.56253600      -20.0000000       2083.50269       1.56961966    
  -42.7563400      -3.12513494      -20.0000000       2083.50269       1.56961966    
  -44.2611694      -3.12488103      -20.0000000       2083.50269       1.56961966    
  -44.2565308      -1.56226599      -20.0000000       663.240845       1.56939733    
  -45.7603798      -1.56126106      -20.0000000       663.240845       1.56939733    
  -45.7582893       0.00000000      -20.0000000       663.240845       1.56939733    
  -44.2515602       0.00000000      -20.0000000       663.240845       1.56939733    
  -45.7582893       0.00000000      -20.0000000       647.947083      -1.57239628    
  -47.2657204       0.00000000      -20.0000000       647.947083      -1.57239628    
  -47.2535896       1.55706894      -20.0000000       647.947083      -1.57239628    
  -45.7509003       1.56100297      -20.0000000       647.947083      -1.57239628    
  -47.2535896       1.55706894      -20.0000000       1986.32666      -1.57248819    
  -48.7560692       1.53868604      -20.0000000       1986.32666      -1.57248819    
  -48.7281189       3.10503101      -20.0000000       1986.32666      -1.57248819    
  -47.2370110       3.11982203      -20.0000000       1986.32666      -1.57248819    
  -48.7281189       3.10503101      -20.0000000       3510.00000      -1.57247055    
  -50.2011604       3.04989505      -20.0000000       3510.00000      -1.57247055    
  -50.2067184       4.64797401      -20.0000000       3510.00000      -1.57247055    
  -48.7241211       4.67746210      -20.0000000       3510.00000      -1.57247055    
  -50.2067184       4.64797401      -20.0000000       5839.96240      -1.57228613    
  -51.6648903       4.56408405      -20.0000000       5839.96240      -1.57228613    
  -51.7500000       6.25000000      -20.0000000       5839.96240      -1.57228613    
  -50.2455711       6.25000000      -20.0000000       5839.96240      -1.57228613    
  -38.2494698      -6.25000000      -20.0000000       6423.50879       1.57011580    
  -39.7556496      -6.25000000      -20.0000000       6423.50879       1.57011580    
  -39.7507591      -4.68851089      -20.0000000       6423.50879       1.57011580    
  -38.2446404      -4.68936491      -20.0000000       6423.50879       1.57011580    
  -39.7507591      -4.68851089      -20.0000000       3789.06836       1.56994832    
  -41.2566490      -4.68782711      -20.0000000       3789.06836       1.56994832    
  -41.2511406      -3.12541890      -20.0000000       3789.06836       1.56994832    
  -39.7453995      -3.12673903      -20.0000000       3789.06836       1.56994832    
  -41.2511406      -3.12541890      -20.0000000       2093.39697       1.56977665    
  -42.7563400      -3.12513494      -20.0000000       2093.39697       1.56977665    
  -42.7509499      -1.56253600      -20.0000000       2093.39697       1.56977665    
  -41.2455711      -1.56282198      -20.0000000       2093.39697       1.56977665    
  -44.2515602       0.00000000      -20.0000000       669.492920       1.56958759    
  -42.7457504       0.00000000      -20.0000000       669.492920       1.56958759    
  -42.7509499      -1.56253600      -20.0000000       669.492920       1.56958759    
  -44.2565308      -1.56226599      -20.0000000       669.492920       1.56958759    
  -44.2515602       0.00000000      -20.0000000       656.930664      -1.57221246    
  -45.7582893       0.00000000      -20.0000000       656.930664      -1.57221246    
  -45.7509003       1.56100297      -20.0000000       656.930664      -1.57221246    
  -44.2452011       1.56199801      -20.0000000       656.930664      -1.57221246    
  -45.7509003       1.56100297      -20.0000000       2031.03088      -1.57232273    
  -47.2535896       1.55706894      -20.0000000       2031.03088      -1.57232273    
  -47.2370110       3.11982203      -20.0000000       2031.03088      -1.57232273    
  -45.7402802       3.12332392      -20.0000000       2031.03088      -1.57232273    
  -47.2370110       3.11982203      -20.0000000       3624.29614      -1.57234371    
  -48.7281189       3.10503101      -20.0000000       3624.29614      -1.57234371    
  -48.7241211       4.67746210      -20.0000000       3624.29614      -1.57234371    
  -47.2300911       4.68496799      -20.0000000       3624.29614      -1.57234371    
  -48.7241211       4.67746210      -20.0000000       6080.51758      -1.57220495    
  -50.2067184       4.64797401      -20.0000000       6080.51758      -1.57220495    
  -50.2455711       6.25000000      -20.0000000       6080.51758      -1.57220495    
  -48.7411499       6.25000000      -20.0000000       6080.51758      -1.57220495    
  -36.7432899      -6.25000000      -20.0000000       6408.12061       1.57020187    
  -38.2494698      -6.25000000      -20.0000000       6408.12061       1.57020187    
  -38.2446404      -4.68936491      -20.0000000       6408.12061       1.57020187    
  -36.7384796      -4.68897390      -20.0000000       6408.12061       1.57020187    
  -38.2446404      -4.68936491      -20.0000000       3789.08716       1.57005572    
  -39.7507591      -4.68851089      -20.0000000       3789.08716       1.57005572    
  -39.7453995      -3.12673903      -20.0000000       3789.08716       1.57005572    
  -38.2396507      -3.12933803      -20.0000000       3789.08716       1.57005572    
  -39.7453995      -3.12673903      -20.0000000       2098.13770       1.56991255    
  -41.2511406      -3.12541890      -20.0000000       2098.13770       1.56991255    
  -41.2455711      -1.56282198      -20.0000000       2098.13770       1.56991255    
  -39.7399902      -1.56351995      -20.0000000       2098.13770       1.56991255    
  -41.2455711      -1.56282198      -20.0000000       673.121521       1.56975198    
  -42.7509499      -1.56253600      -20.0000000       673.121521       1.56975198    
  -42.7457504       0.00000000      -20.0000000       673.121521       1.56975198    
  -41.2401695       0.00000000      -20.0000000       673.121521       1.56975198    
  -44.2452011       1.56199801      -20.0000000       661.231689      -1.57202256    
  -42.7402611       1.56238496      -20.0000000       661.231689      -1.57202256    
  -42.7457504       0.00000000      -20.0000000       661.231689      -1.57202256    
  -44.2515602       0.00000000      -20.0000000       661.231689      -1.57202256    
  -44.2452011       1.56199801      -20.0000000       2057.84204      -1.57214844    
  -45.7509003       1.56100297      -20.0000000       2057.84204      -1.57214844    
  -45.7402802       3.12332392      -20.0000000       2057.84204      -1.57214844    
  -44.2380295       3.12447906      -20.0000000       2057.84204      -1.57214844    
  -45.7402802       3.12332392      -20.0000000       3694.78540      -1.57220197    
  -47.2370110       3.11982203      -20.0000000       3694.78540      -1.57220197    
  -47.2300911       4.68496799      -20.0000000       3694.78540      -1.57220197    
  -45.7329903       4.68700409      -20.0000000       3694.78540      -1.57220197    
  -47.2300911       4.68496799      -20.0000000       6242.76953      -1.57211280    
  -48.7241211       4.67746210      -20.0000000       6242.76953      -1.57211280    
  -48.7411499       6.25000000      -20.0000000       6242.76953      -1.57211280    
  -47.2367287       6.25000000      -20.0000000       6242.76953      -1.57211280    
  -35.2371101      -6.25000000      -20.0000000       6391.94189       1.57027900    
  -36.7432899      -6.25000000      -20.0000000       6391.94189       1.57027900    
  -36.7384796      -4.68897390      -20.0000000       6391.94189       1.57027900    
  -35.2325211      -4.68835878      -20.0000000       6391.94189       1.57027900    
  -36.7384796      -4.68897390      -20.0000000       3784.32690       1.57014894    
  -38.2446404      -4.68936491      -20.0000000       3784.32690       1.57014894    
  -38.2396507      -3.12933803      -20.0000000       3784.32690       1.57014894    
  -36.7339096      -3.12783909      -20.0000000       3784.32690       1.57014894    
  -38.2396507      -3.12933803      -20.0000000       2100.32031       1.57002866    
  -39.7453995      -3.12673903      -20.0000000       2100.32031       1.57002866    
  -39.7399902      -1.56351995      -20.0000000       2100.32031       1.57002866    
  -38.2346497      -1.56438303      -20.0000000       2100.32031       1.57002866    
  -39.7399902      -1.56351995      -20.0000000       675.303772       1.56989610    
  -41.2455711      -1.56282198      -20.0000000       675.303772       1.56989610    
  -41.2401695       0.00000000      -20.0000000       675.303772       1.56989610    