 VARIABLES="X" "Y" "Z" "abs(p) (Pa)" "angle(p) (rad)"
ZONE N=   3650,E =    3624, F=FEPOINT, ET=QUADRILATERAL
  -56.5164909      -2.47323704      -20.0000000       106560.867      -1.57136786    
  -55.4176407      -3.26747894      -20.0000000       106560.867      -1.57136786    
  -55.9264717      -4.64953518      -20.0000000       106560.867      -1.57136786    
  -56.9148483      -3.51935697      -20.0000000       106560.867      -1.57136786    
  -56.9148483      -3.51935697      -20.0000000       86981.2656      -1.57129562    
  -57.6058807      -2.18402195      -20.0000000       86981.2656      -1.57129562    
  -56.5164909      -2.47323704      -20.0000000       86981.2656      -1.57129562    
  -56.5164909      -2.47323704      -20.0000000       86981.2656      -1.57129562    
  -54.6953812      -5.51239681      -20.0000000       132771.547      -1.57143497    
  -55.9264717      -4.64953518      -20.0000000       132771.547      -1.57143497    
  -55.4176407      -3.26747894      -20.0000000       132771.547      -1.57143497    
  -54.2450790      -3.94889998      -20.0000000       132771.547      -1.57143497    
  -54.2450790      -3.94889998      -20.0000000       155419.406      -1.57150042    
  -52.9834785      -4.46340179      -20.0000000       155419.406      -1.57150042    
  -53.2955093      -6.05576801      -20.0000000       155419.406      -1.57150042    
  -54.6953812      -5.51239681      -20.0000000       155419.406      -1.57150042    
  -56.5223999      -1.11500299      -20.0000000       47177.1914      -1.57134068    
  -56.5164909      -2.47323704      -20.0000000       47177.1914      -1.57134068    
  -57.6058807      -2.18402195      -20.0000000       47177.1914      -1.57134068    
  -57.9577713     -0.724482894      -20.0000000       47177.1914      -1.57134068    
  -56.5164909      -2.47323704      -20.0000000       55822.6211      -1.57147300    
  -56.5223999      -1.11500299      -20.0000000       55822.6211      -1.57147300    
  -55.1657600      -1.76926601      -20.0000000       55822.6211      -1.57147300    
  -55.4176407      -3.26747894      -20.0000000       55822.6211      -1.57147300    
  -54.2450790      -3.94889998      -20.0000000       71654.9062      -1.57155216    
  -55.4176407      -3.26747894      -20.0000000       71654.9062      -1.57155216    
  -55.1657600      -1.76926601      -20.0000000       71654.9062      -1.57155216    
  -53.8819199      -2.32836604      -20.0000000       71654.9062      -1.57155216    
  -52.9834785      -4.46340179      -20.0000000       171652.203      -1.57155252    
  -51.6155815      -4.69134283      -20.0000000       171652.203      -1.57155252    
  -51.8049088      -6.24783087      -20.0000000       171652.203      -1.57155252    
  -53.2955093      -6.05576801      -20.0000000       171652.203      -1.57155252    
  -56.3964119      0.254809886      -20.0000000       4984.13330      -1.57140839    
  -56.5223999      -1.11500299      -20.0000000       4984.13330      -1.57140839    
  -57.9577713     -0.724482894      -20.0000000       4984.13330      -1.57140839    
  -57.9511719      0.779103875      -20.0000000       4984.13330      -1.57140839    
  -53.8819199      -2.32836604      -20.0000000       87429.5781      -1.57160735    
  -52.7235603      -2.92538095      -20.0000000       87429.5781      -1.57160735    
  -52.9834785      -4.46340179      -20.0000000       87429.5781      -1.57160735    
  -54.2450790      -3.94889998      -20.0000000       87429.5781      -1.57160735    
  -56.5223999      -1.11500299      -20.0000000       18085.1172      -1.57150793    
  -56.3964119      0.254809886      -20.0000000       18085.1172      -1.57150793    
  -54.8835487     -0.325594515      -20.0000000       18085.1172      -1.57150793    
  -55.1657600      -1.76926601      -20.0000000       18085.1172      -1.57150793    
  -50.2990494      -6.25000000      -20.0000000       179324.234      -1.57158554    
  -51.8049088      -6.24783087      -20.0000000       179324.234      -1.57158554    
  -51.6155815      -4.69134283      -20.0000000       179324.234      -1.57158554    
  -50.1911316      -4.70199823      -20.0000000       179324.234      -1.57158554    
  -53.8819199      -2.32836604      -20.0000000       30272.5215      -1.57159936    
  -55.1657600      -1.76926601      -20.0000000       30272.5215      -1.57159936    
  -54.8835487     -0.325594515      -20.0000000       30272.5215      -1.57159936    
  -53.3087082     -0.726661325      -20.0000000       30272.5215      -1.57159936    
  -52.7235603      -2.92538095      -20.0000000       99710.8906      -1.57164741    
  -51.4683685      -3.18431592      -20.0000000       99710.8906      -1.57164741    
  -51.6155815      -4.69134283      -20.0000000       99710.8906      -1.57164741    
  -52.9834785      -4.46340179      -20.0000000       99710.8906      -1.57164741    
  -56.1067696       1.60355306      -20.0000000       35996.6836       1.57023311    
  -56.3964119      0.254809886      -20.0000000       35996.6836       1.57023311    
  -57.9511719      0.779103875      -20.0000000       35996.6836       1.57023311    
  -57.5863686       2.23558092      -20.0000000       35996.6836       1.57023311    
  -56.3964119      0.254809886      -20.0000000       16146.6855       1.57004702    
  -56.1067696       1.60355306      -20.0000000       16146.6855       1.57004702    
  -54.6488190       1.11988902      -20.0000000       16146.6855       1.57004702    
  -54.8835487     -0.325594515      -20.0000000       16146.6855       1.57004702    
  -51.8859215      -1.67511594      -20.0000000       44418.2812      -1.57166529    
  -52.7235603      -2.92538095      -20.0000000       44418.2812      -1.57166529    
  -53.8819199      -2.32836604      -20.0000000       44418.2812      -1.57166529    
  -53.3087082     -0.726661325      -20.0000000       44418.2812      -1.57166529    
  -48.7928200      -6.25000000      -20.0000000       181656.953      -1.57160211    
  -50.2990494      -6.25000000      -20.0000000       181656.953      -1.57160211    
  -50.1911316      -4.70199823      -20.0000000       181656.953      -1.57160211    
  -48.7387619      -4.69004917      -20.0000000       181656.953      -1.57160211    
  -50.1911316      -4.70199823      -20.0000000       104146.961      -1.57167184    
  -51.6155815      -4.69134283      -20.0000000       104146.961      -1.57167184    
  -51.4683685      -3.18431592      -20.0000000       104146.961      -1.57167184    
  -50.1564102      -3.12996602      -20.0000000       104146.961      -1.57167184    
  -54.6488190       1.11988902      -20.0000000       5737.21191       1.56981897    
  -53.2043991       1.01675200      -20.0000000       5737.21191       1.56981897    
  -53.3087082     -0.726661325      -20.0000000       5737.21191       1.56981897    
  -54.8835487     -0.325594515      -20.0000000       5737.21191       1.56981897    
  -51.4683685      -3.18431592      -20.0000000       62842.8828      -1.57167912    
  -52.7235603      -2.92538095      -20.0000000       62842.8828      -1.57167912    
  -51.8859215      -1.67511594      -20.0000000       62842.8828      -1.57167912    
  -51.8859215      -1.67511594      -20.0000000       62842.8828      -1.57167912    
  -55.6295395       2.91055298      -20.0000000       76314.3516       1.57022166    
  -56.1067696       1.60355306      -20.0000000       76314.3516       1.57022166    
  -57.5863686       2.23558092      -20.0000000       76314.3516       1.57022166    
  -56.8836594       3.56473303      -20.0000000       76314.3516       1.57022166    
  -47.2866096      -6.25000000      -20.0000000       182008.938      -1.57160461    
  -48.7928200      -6.25000000      -20.0000000       182008.938      -1.57160461    
  -48.7387619      -4.69004917      -20.0000000       182008.938      -1.57160461    
  -47.2626686      -4.68801212      -20.0000000       182008.938      -1.57160461    
  -48.7387619      -4.69004917      -20.0000000       104224.648      -1.57167971    
  -50.1911316      -4.70199823      -20.0000000       104224.648      -1.57167971    
  -50.1564102      -3.12996602      -20.0000000       104224.648      -1.57167971    
  -48.7254105      -3.12169194      -20.0000000       104224.648      -1.57167971    
  -50.1564102      -3.12996602      -20.0000000       57210.8164      -1.57170713    
  -51.4683685      -3.18431592      -20.0000000       57210.8164      -1.57170713    
  -51.8859215      -1.67511594      -20.0000000       57210.8164      -1.57170713    
  -50.2854195      -1.59545600      -20.0000000       57210.8164      -1.57170713    
  -54.6488190       1.11988902      -20.0000000       50902.1133       1.57005167    
  -56.1067696       1.60355306      -20.0000000       50902.1133       1.57005167    
  -55.6295395       2.91055298      -20.0000000       50902.1133       1.57005167    
  -54.3531990       2.57653904      -20.0000000       50902.1133       1.57005167    
  -51.7686501     -0.191007897      -20.0000000       20084.6035      -1.57166040    
  -51.8859215      -1.67511594      -20.0000000       20084.6035      -1.57166040    
  -53.3087082     -0.726661325      -20.0000000       20084.6035      -1.57166040    
  -53.3087082     -0.726661325      -20.0000000       20084.6035      -1.57166040    
  -51.7686501     -0.191007897      -20.0000000       7531.45117       1.56978977    
  -53.3087082     -0.726661325      -20.0000000       7531.45117       1.56978977    
  -53.2043991       1.01675200      -20.0000000       7531.45117       1.56978977    
  -51.7500000       1.29565406      -20.0000000       7531.45117       1.56978977    
  -53.0367393       2.70281792      -20.0000000       43682.5508       1.56995046    
  -53.2043991       1.01675200      -20.0000000       43682.5508       1.56995046    
  -54.6488190       1.11988902      -20.0000000       43682.5508       1.56995046    
  -54.3531990       2.57653904      -20.0000000       43682.5508       1.56995046    
  -45.7804108      -6.25000000      -20.0000000       180559.016      -1.57159257    
  -47.2866096      -6.25000000      -20.0000000       180559.016      -1.57159257    
  -47.2626686      -4.68801212      -20.0000000       180559.016      -1.57159257    
  -45.7679100      -4.68779421      -20.0000000       180559.016      -1.57159257    
  -47.2626686      -4.68801212      -20.0000000       104443.164      -1.57166970    
  -48.7387619      -4.69004917      -20.0000000       104443.164      -1.57166970    
  -48.7254105      -3.12169194      -20.0000000       104443.164      -1.57166970    
  -47.2550507      -3.12222195      -20.0000000       104443.164      -1.57166970    
  -54.5736809       4.04919481      -20.0000000       114436.742       1.57019103    
  -55.6295395       2.91055298      -20.0000000       114436.742       1.57019103    
  -56.8836594       3.56473303      -20.0000000       114436.742       1.57019103    
  -55.8850899       4.68635893      -20.0000000       114436.742       1.57019103    
  -48.7254105      -3.12169194      -20.0000000       56972.1992      -1.57171178    
  -50.1564102      -3.12996602      -20.0000000       56972.1992      -1.57171178    
  -50.2854195      -1.59545600      -20.0000000       56972.1992      -1.57171178    
  -48.7658615      -1.56390297      -20.0000000       56972.1992      -1.57171178    
  -50.2854195      -1.59545600      -20.0000000       20647.1816      -1.57171512    
  -51.8859215      -1.67511594      -20.0000000       20647.1816      -1.57171512    
  -51.7686501     -0.191007897      -20.0000000       20647.1816      -1.57171512    
  -50.2816200      -7.23225027E-02  -20.0000000       20647.1816      -1.57171512    
  -55.6295395       2.91055298      -20.0000000       82676.3672       1.57006407    
  -54.5736809       4.04919481      -20.0000000       82676.3672       1.57006407    
  -54.3531990       2.57653904      -20.0000000       82676.3672       1.57006407    
  -54.3531990       2.57653904      -20.0000000       82676.3672       1.57006407    
  -51.6464691       2.90894699      -20.0000000       46646.2383       1.56990206    
  -51.7500000       1.29565406      -20.0000000       46646.2383       1.56990206    
  -53.2043991       1.01675200      -20.0000000       46646.2383       1.56990206    
  -53.0367393       2.70281792      -20.0000000       46646.2383       1.56990206    
  -44.2742119      -6.25000000      -20.0000000       177549.844      -1.57156396    
  -45.7804108      -6.25000000      -20.0000000       177549.844      -1.57156396    
  -45.7679100      -4.68779421      -20.0000000       177549.844      -1.57156396    
  -44.2670212      -4.68766403      -20.0000000       177549.844      -1.57156396    
  -45.7679100      -4.68779421      -20.0000000       103983.750      -1.57164311    
  -47.2626686      -4.68801212      -20.0000000       103983.750      -1.57164311    
  -47.2550507      -3.12222195      -20.0000000       103983.750      -1.57164311    
  -45.7611885      -3.12411094      -20.0000000       103983.750      -1.57164311    
  -51.7500000       1.29565406      -20.0000000       14442.3594       1.56985879    
  -50.2459984       1.47492099      -20.0000000       14442.3594       1.56985879    
  -50.2816200      -7.23225027E-02  -20.0000000       14442.3594       1.56985879    
  -51.7686501     -0.191007897      -20.0000000       14442.3594       1.56985879    
  -47.2550507      -3.12222195      -20.0000000       57027.2148      -1.57169664    
  -48.7254105      -3.12169194      -20.0000000       57027.2148      -1.57169664    
  -48.7658615      -1.56390297      -20.0000000       57027.2148      -1.57169664    
  -47.2643318      -1.55986798      -20.0000000       57027.2148      -1.57169664    
  -48.7658615      -1.56390297      -20.0000000       18898.4102      -1.57172799    
  -50.2854195      -1.59545600      -20.0000000       18898.4102      -1.57172799    
  -50.2816200      -7.23225027E-02  -20.0000000       18898.4102      -1.57172799    
  -48.7753716      -1.42937005E-02  -20.0000000       18898.4102      -1.57172799    
  -54.5736809       4.04919481      -20.0000000       88038.7031       1.56999552    
  -53.0954399       4.36336088      -20.0000000       88038.7031       1.56999552    
  -53.0367393       2.70281792      -20.0000000       88038.7031       1.56999552    
  -54.3531990       2.57653904      -20.0000000       88038.7031       1.56999552    
  -54.6465797       5.53822613      -20.0000000       153025.766       1.57018661    
  -54.5736809       4.04919481      -20.0000000       153025.766       1.57018661    
  -55.8850899       4.68635893      -20.0000000       153025.766       1.57018661    
  -55.8850899       4.68635893      -20.0000000       153025.766       1.57018661    
  -44.2670212      -4.68766403      -20.0000000       173326.219      -1.57151616    
  -42.7620697      -4.68767691      -20.0000000       173326.219      -1.57151616    
  -42.7680206      -6.25000000      -20.0000000       173326.219      -1.57151616    
  -44.2742119      -6.25000000      -20.0000000       173326.219      -1.57151616    
  -44.2670212      -4.68766403      -20.0000000       102663.742      -1.57160079    
  -45.7679100      -4.68779421      -20.0000000       102663.742      -1.57160079    
  -45.7611885      -3.12411094      -20.0000000       102663.742      -1.57160079    
  -44.2611694      -3.12488103      -20.0000000       102663.742      -1.57160079    
  -45.7611885      -3.12411094      -20.0000000       56875.3789      -1.57166255    
  -47.2550507      -3.12222195      -20.0000000       56875.3789      -1.57166255    
  -47.2643318      -1.55986798      -20.0000000       56875.3789      -1.57166255    
  -45.7603798      -1.56126106      -20.0000000       56875.3789      -1.57166255    
  -50.2459984       1.47492099      -20.0000000       52090.7578       1.56988013    
  -51.7500000       1.29565406      -20.0000000       52090.7578       1.56988013    
  -51.6464691       2.90894699      -20.0000000       52090.7578       1.56988013    
  -50.2011604       3.04989505      -20.0000000       52090.7578       1.56988013    
  -54.6465797       5.53822613      -20.0000000       154511.250       1.57009315    
  -53.2416306       6.06926107      -20.0000000       154511.250       1.57009315    
  -53.0954399       4.36336088      -20.0000000       154511.250       1.57009315    
  -54.5736809       4.04919481      -20.0000000       154511.250       1.57009315    
  -47.2643318      -1.55986798      -20.0000000       18301.0938      -1.57170939    
  -48.7658615      -1.56390297      -20.0000000       18301.0938      -1.57170939    
  -48.7753716      -1.42937005E-02  -20.0000000       18301.0938      -1.57170939    
  -47.2657204       0.00000000      -20.0000000       18301.0938      -1.57170939    
  -48.7753716      -1.42937005E-02  -20.0000000       16975.9355       1.56986308    
  -50.2816200      -7.23225027E-02  -20.0000000       16975.9355       1.56986308    
  -50.2459984       1.47492099      -20.0000000       16975.9355       1.56986308    
  -48.7560692       1.53868604      -20.0000000       16975.9355       1.56986308    
  -51.6464691       2.90894699      -20.0000000       93341.5000       1.56994212    
  -53.0367393       2.70281792      -20.0000000       93341.5000       1.56994212    
  -53.0954399       4.36336088      -20.0000000       93341.5000       1.56994212    
  -51.6648903       4.56408405      -20.0000000       93341.5000       1.56994212    
  -41.2618294      -6.25000000      -20.0000000       168274.922      -1.57144892    
  -42.7680206      -6.25000000      -20.0000000       168274.922      -1.57144892    
  -42.7620697      -4.68767691      -20.0000000       168274.922      -1.57144892    
  -41.2566490      -4.68782711      -20.0000000       168274.922      -1.57144892    
  -44.2611694      -3.12488103      -20.0000000       100588.414      -1.57154381    
  -42.7563400      -3.12513494      -20.0000000       100588.414      -1.57154381    
  -42.7620697      -4.68767691      -20.0000000       100588.414      -1.57154381    
  -44.2670212      -4.68766403      -20.0000000       100588.414      -1.57154381    
  -44.2611694      -3.12488103      -20.0000000       56279.9297      -1.57161355    
  -45.7611885      -3.12411094      -20.0000000       56279.9297      -1.57161355    
  -45.7603798      -1.56126106      -20.0000000       56279.9297      -1.57161355    
  -44.2565308      -1.56226599      -20.0000000       56279.9297      -1.57161355    
  -45.7603798      -1.56126106      -20.0000000       18160.6738      -1.57167256    
  -47.2643318      -1.55986798      -20.0000000       18160.6738      -1.57167256    
  -47.2657204       0.00000000      -20.0000000       18160.6738      -1.57167256    
  -45.7582893       0.00000000      -20.0000000       18160.6738      -1.57167256    
  -47.2657204       0.00000000      -20.0000000       17966.3711       1.56988239    
  -48.7753716      -1.42937005E-02  -20.0000000       17966.3711       1.56988239    
  -48.7560692       1.53868604      -20.0000000       17966.3711       1.56988239    
  -47.2535896       1.55706894      -20.0000000       17966.3711       1.56988239    
  -48.7560692       1.53868604      -20.0000000       55512.6367       1.56987810    
  -50.2459984       1.47492099      -20.0000000       55512.6367       1.56987810    
  -50.2011604       3.04989505      -20.0000000       55512.6367       1.56987810    
  -48.7281189       3.10503101      -20.0000000       55512.6367       1.56987810    
  -50.2011604       3.04989505      -20.0000000       99143.1250       1.56991589    
  -51.6464691       2.90894699      -20.0000000       99143.1250       1.56991589    
  -51.6648903       4.56408405      -20.0000000       99143.1250       1.56991589    
  -50.2067184       4.64797401      -20.0000000       99143.1250       1.56991589    
  -51.6648903       4.56408405      -20.0000000       168131.125       1.57003498    
  -53.0954399       4.36336088      -20.0000000       168131.125       1.57003498    
  -53.2416306       6.06926107      -20.0000000       168131.125       1.57003498    
  -51.7500000       6.25000000      -20.0000000       168131.125       1.57003498    
  -39.7556496      -6.25000000      -20.0000000       162657.344      -1.57136416    
  -41.2618294      -6.25000000      -20.0000000       162657.344      -1.57136416    
  -41.2566490      -4.68782711      -20.0000000       162657.344      -1.57136416    
  -39.7507591      -4.68851089      -20.0000000       162657.344      -1.57136416    
  -41.2566490      -4.68782711      -20.0000000       97945.8672      -1.57147360    
  -42.7620697      -4.68767691      -20.0000000       97945.8672      -1.57147360    
  -42.7563400      -3.12513494      -20.0000000       97945.8672      -1.57147360    
  -41.2511406      -3.12541890      -20.0000000       97945.8672      -1.57147360    
  -44.2565308      -1.56226599      -20.0000000       55248.4688      -1.57155252    
  -42.7509499      -1.56253600      -20.0000000       55248.4688      -1.57155252    
  -42.7563400      -3.12513494      -20.0000000       55248.4688      -1.57155252    
  -44.2611694      -3.12488103      -20.0000000       55248.4688      -1.57155252    
  -44.2565308      -1.56226599      -20.0000000       17992.4414      -1.57161963    
  -45.7603798      -1.56126106      -20.0000000       17992.4414      -1.57161963    
  -45.7582893       0.00000000      -20.0000000       17992.4414      -1.57161963    
  -44.2515602       0.00000000      -20.0000000       17992.4414      -1.57161963    
  -45.7582893       0.00000000      -20.0000000       18070.2988       1.56991565    
  -47.2657204       0.00000000      -20.0000000       18070.2988       1.56991565    
  -47.2535896       1.55706894      -20.0000000       18070.2988       1.56991565    
  -45.7509003       1.56100297      -20.0000000       18070.2988       1.56991565    
  -47.2535896       1.55706894      -20.0000000       56714.5352       1.56989384    
  -48.7560692       1.53868604      -20.0000000       56714.5352       1.56989384    
  -48.7281189       3.10503101      -20.0000000       56714.5352       1.56989384    
  -47.2370110       3.11982203      -20.0000000       56714.5352       1.56989384    
  -48.7281189       3.10503101      -20.0000000       102796.555       1.56990993    
  -50.2011604       3.04989505      -20.0000000       102796.555       1.56990993    
  -50.2067184       4.64797401      -20.0000000       102796.555       1.56990993    
  -48.7241211       4.67746210      -20.0000000       102796.555       1.56990993    
  -50.2067184       4.64797401      -20.0000000       176494.266       1.57000244    
  -51.6648903       4.56408405      -20.0000000       176494.266       1.57000244    
  -51.7500000       6.25000000      -20.0000000       176494.266       1.57000244    
  -50.2455711       6.25000000      -20.0000000       176494.266       1.57000244    
  -38.2494698      -6.25000000      -20.0000000       156692.938      -1.57126784    
  -39.7556496      -6.25000000      -20.0000000       156692.938      -1.57126784    
  -39.7507591      -4.68851089      -20.0000000       156692.938      -1.57126784    
  -38.2446404      -4.68936491      -20.0000000       156692.938      -1.57126784    
  -39.7507591      -4.68851089      -20.0000000       94924.0625      -1.57139194    
  -41.2566490      -4.68782711      -20.0000000       94924.0625      -1.57139194    
  -41.2511406      -3.12541890      -20.0000000       94924.0625      -1.57139194    
  -39.7453995      -3.12673903      -20.0000000       94924.0625      -1.57139194    
  -41.2511406      -3.12541890      -20.0000000       53896.8203      -1.57148135    
  -42.7563400      -3.12513494      -20.0000000       53896.8203      -1.57148135    
  -42.7509499      -1.56253600      -20.0000000       53896.8203      -1.57148135    
  -41.2455711      -1.56282198      -20.0000000       53896.8203      -1.57148135    
  -44.2515602       0.00000000      -20.0000000       17684.4609      -1.57155645    
  -42.7457504       0.00000000      -20.0000000       17684.4609      -1.57155645    
  -42.7509499      -1.56253600      -20.0000000       17684.4609      -1.57155645    
  -44.2565308      -1.56226599      -20.0000000       17684.4609      -1.57155645    
  -44.2515602       0.00000000      -20.0000000       17879.6895       1.56996632    
  -45.7582893       0.00000000      -20.0000000       17879.6895       1.56996632    
  -45.7509003       1.56100297      -20.0000000       17879.6895       1.56996632    
  -44.2452011       1.56199801      -20.0000000       17879.6895       1.56996632    
  -45.7509003       1.56100297      -20.0000000       56737.9453       1.56992710    
  -47.2535896       1.55706894      -20.0000000       56737.9453       1.56992710    
  -47.2370110       3.11982203      -20.0000000       56737.9453       1.56992710    
  -45.7402802       3.12332392      -20.0000000       56737.9453       1.56992710    
  -47.2370110       3.11982203      -20.0000000       104105.898       1.56992114    
  -48.7281189       3.10503101      -20.0000000       104105.898       1.56992114    
  -48.7241211       4.67746210      -20.0000000       104105.898       1.56992114    
  -47.2300911       4.68496799      -20.0000000       104105.898       1.56992114    
  -48.7241211       4.67746210      -20.0000000       180588.547       1.56998777    
  -50.2067184       4.64797401      -20.0000000       180588.547       1.56998777    
  -50.2455711       6.25000000      -20.0000000       180588.547       1.56998777    
  -48.7411499       6.25000000      -20.0000000       180588.547       1.56998777    
  -36.7432899      -6.25000000      -20.0000000       150484.234      -1.57116997    
  -38.2494698      -6.25000000      -20.0000000       150484.234      -1.57116997    
  -38.2446404      -4.68936491      -20.0000000       150484.234      -1.57116997    
  -36.7384796      -4.68897390      -20.0000000       150484.234      -1.57116997    
  -38.2446404      -4.68936491      -20.0000000       91657.7812      -1.57130337    
  -39.7507591      -4.68851089      -20.0000000       91657.7812      -1.57130337    
  -39.7453995      -3.12673903      -20.0000000       91657.7812      -1.57130337    
  -38.2396507      -3.12933803      -20.0000000       91657.7812      -1.57130337    
  -39.7453995      -3.12673903      -20.0000000       52311.0039      -1.57140243    
  -41.2511406      -3.12541890      -20.0000000       52311.0039      -1.57140243    
  -41.2455711      -1.56282198      -20.0000000       52311.0039      -1.57140243    
  -39.7399902      -1.56351995      -20.0000000       52311.0039      -1.57140243    
  -41.2455711      -1.56282198      -20.0000000       17267.4102      -1.57148492    
  -42.7509499      -1.56253600      -20.0000000       17267.4102      -1.57148492    
  -42.7457504       0.00000000      -20.0000000       17267.4102      -1.57148492    
  -41.2401695       0.00000000      -20.0000000       17267.4102      -1.57148492    
  -44.2452011       1.56199801      -20.0000000       17516.8652       1.57002807    
  -42.7402611       1.56238496      -20.0000000       17516.8652       1.57002807    
  -42.7457504       0.00000000      -20.0000000       17516.8652       1.57002807    
  -44.2515602       0.00000000      -20.0000000       17516.8652       1.57002807    
  -44.2452011       1.56199801      -20.0000000       56098.8242       1.56997573    
  -45.7509003       1.56100297      -20.0000000       56098.8242       1.56997573    
  -45.7402802       3.12332392      -20.0000000       56098.8242       1.56997573    
  -44.2380295       3.12447906      -20.0000000       56098.8242       1.56997573    
  -45.7402802       3.12332392      -20.0000000       103801.648       1.56994760    
  -47.2370110       3.11982203      -20.0000000       103801.648       1.56994760    
  -47.2300911       4.68496799      -20.0000000       103801.648       1.56994760    
  -45.7329903       4.68700409      -20.0000000       103801.648       1.56994760    
  -47.2300911       4.68496799      -20.0000000       181627.109       1.56998599    
  -48.7241211       4.67746210      -20.0000000       181627.109       1.56998599    
  -48.7411499       6.25000000      -20.0000000       181627.109       1.56998599    
  -47.2367287       6.25000000      -20.0000000       181627.109       1.56998599    
  -35.2371101      -6.25000000      -20.0000000       144137.969      -1.57108283    
  -36.7432899      -6.25000000      -20.0000000       144137.969      -1.57108283    
  -36.7384796      -4.68897390      -20.0000000       144137.969      -1.57108283    
  -35.2325211      -4.68835878      -20.0000000       144137.969      -1.57108283    
  -36.7384796      -4.68897390      -20.0000000       88158.3281      -1.57121468    
  -38.2446404      -4.68936491      -20.0000000       88158.3281      -1.57121468    
  -38.2396507      -3.12933803      -20.0000000       88158.3281      -1.57121468    
  -36.7339096      -3.12783909      -20.0000000       88158.3281      -1.57121468    
  -38.2396507      -3.12933803      -20.0000000       50576.8711      -1.57131886    
  -39.7453995      -3.12673903      -20.0000000       50576.8711      -1.57131886    
  -39.7399902      -1.56351995      -20.0000000       50576.8711      -1.57131886    
  -38.2346497      -1.56438303      -20.0000000       50576.8711      -1.57131886    
  -39.7399902      -1.56351995      -20.0000000       16780.9609      -1.57140791    
  -41.2455711      -1.56282198      -20.0000000       16780.9609      -1.57140791    
  -41.2401695       0.00000000      -20.0000000       16780.9609      -1.57140791    