 VARIABLES="X" "Y" "Z" "abs(p) (Pa)" "angle(p) (rad)"
ZONE N=   3650,E =    3624, F=FEPOINT, ET=QUADRILATERAL
  -56.5164909      -2.47323704      -20.0000000       1076.39563       1.63301146    
  -55.4176407      -3.26747894      -20.0000000       1076.39563       1.63301146    
  -55.9264717      -4.64953518      -20.0000000       1076.39563       1.63301146    
  -56.9148483      -3.51935697      -20.0000000       1076.39563       1.63301146    
  -56.9148483      -3.51935697      -20.0000000       956.937378       1.64078367    
  -57.6058807      -2.18402195      -20.0000000       956.937378       1.64078367    
  -56.5164909      -2.47323704      -20.0000000       956.937378       1.64078367    
  -56.5164909      -2.47323704      -20.0000000       956.937378       1.64078367    
  -54.6953812      -5.51239681      -20.0000000       1140.72693       1.62963879    
  -55.9264717      -4.64953518      -20.0000000       1140.72693       1.62963879    
  -55.4176407      -3.26747894      -20.0000000       1140.72693       1.62963879    
  -54.2450790      -3.94889998      -20.0000000       1140.72693       1.62963879    
  -54.2450790      -3.94889998      -20.0000000       1183.34619       1.62771332    
  -52.9834785      -4.46340179      -20.0000000       1183.34619       1.62771332    
  -53.2955093      -6.05576801      -20.0000000       1183.34619       1.62771332    
  -54.6953812      -5.51239681      -20.0000000       1183.34619       1.62771332    
  -56.5223999      -1.11500299      -20.0000000       1069.99646       1.63315129    
  -56.5164909      -2.47323704      -20.0000000       1069.99646       1.63315129    
  -57.6058807      -2.18402195      -20.0000000       1069.99646       1.63315129    
  -57.9577713     -0.724482894      -20.0000000       1069.99646       1.63315129    
  -56.5164909      -2.47323704      -20.0000000       1353.01343       1.61995757    
  -56.5223999      -1.11500299      -20.0000000       1353.01343       1.61995757    
  -55.1657600      -1.76926601      -20.0000000       1353.01343       1.61995757    
  -55.4176407      -3.26747894      -20.0000000       1353.01343       1.61995757    
  -54.2450790      -3.94889998      -20.0000000       1489.74854       1.61547041    
  -55.4176407      -3.26747894      -20.0000000       1489.74854       1.61547041    
  -55.1657600      -1.76926601      -20.0000000       1489.74854       1.61547041    
  -53.8819199      -2.32836604      -20.0000000       1489.74854       1.61547041    
  -52.9834785      -4.46340179      -20.0000000       1228.47961       1.62583458    
  -51.6155815      -4.69134283      -20.0000000       1228.47961       1.62583458    
  -51.8049088      -6.24783087      -20.0000000       1228.47961       1.62583458    
  -53.2955093      -6.05576801      -20.0000000       1228.47961       1.62583458    
  -56.3964119      0.254809886      -20.0000000       1121.27283       1.63019741    
  -56.5223999      -1.11500299      -20.0000000       1121.27283       1.63019741    
  -57.9577713     -0.724482894      -20.0000000       1121.27283       1.63019741    
  -57.9511719      0.779103875      -20.0000000       1121.27283       1.63019741    
  -53.8819199      -2.32836604      -20.0000000       1563.60791       1.61345077    
  -52.7235603      -2.92538095      -20.0000000       1563.60791       1.61345077    
  -52.9834785      -4.46340179      -20.0000000       1563.60791       1.61345077    
  -54.2450790      -3.94889998      -20.0000000       1563.60791       1.61345077    
  -56.5223999      -1.11500299      -20.0000000       1470.14954       1.61591685    
  -56.3964119      0.254809886      -20.0000000       1470.14954       1.61591685    
  -54.8835487     -0.325594515      -20.0000000       1470.14954       1.61591685    
  -55.1657600      -1.76926601      -20.0000000       1470.14954       1.61591685    
  -50.2990494      -6.25000000      -20.0000000       1288.38232       1.62345254    
  -51.8049088      -6.24783087      -20.0000000       1288.38232       1.62345254    
  -51.6155815      -4.69134283      -20.0000000       1288.38232       1.62345254    
  -50.1911316      -4.70199823      -20.0000000       1288.38232       1.62345254    
  -53.8819199      -2.32836604      -20.0000000       1667.58850       1.61055422    
  -55.1657600      -1.76926601      -20.0000000       1667.58850       1.61055422    
  -54.8835487     -0.325594515      -20.0000000       1667.58850       1.61055422    
  -53.3087082     -0.726661325      -20.0000000       1667.58850       1.61055422    
  -52.7235603      -2.92538095      -20.0000000       1618.87476       1.61211383    
  -51.4683685      -3.18431592      -20.0000000       1618.87476       1.61211383    
  -51.6155815      -4.69134283      -20.0000000       1618.87476       1.61211383    
  -52.9834785      -4.46340179      -20.0000000       1618.87476       1.61211383    
  -56.1067696       1.60355306      -20.0000000       1138.43408       1.62932241    
  -56.3964119      0.254809886      -20.0000000       1138.43408       1.62932241    
  -57.9511719      0.779103875      -20.0000000       1138.43408       1.62932241    
  -57.5863686       2.23558092      -20.0000000       1138.43408       1.62932241    
  -56.3964119      0.254809886      -20.0000000       1511.34949       1.61467123    
  -56.1067696       1.60355306      -20.0000000       1511.34949       1.61467123    
  -54.6488190       1.11988902      -20.0000000       1511.34949       1.61467123    
  -54.8835487     -0.325594515      -20.0000000       1511.34949       1.61467123    
  -51.8859215      -1.67511594      -20.0000000       1777.83899       1.60814643    
  -52.7235603      -2.92538095      -20.0000000       1777.83899       1.60814643    
  -53.8819199      -2.32836604      -20.0000000       1777.83899       1.60814643    
  -53.3087082     -0.726661325      -20.0000000       1777.83899       1.60814643    
  -48.7928200      -6.25000000      -20.0000000       1343.85059       1.62144351    
  -50.2990494      -6.25000000      -20.0000000       1343.85059       1.62144351    
  -50.1911316      -4.70199823      -20.0000000       1343.85059       1.62144351    
  -48.7387619      -4.69004917      -20.0000000       1343.85059       1.62144351    
  -50.1911316      -4.70199823      -20.0000000       1688.15320       1.61052096    
  -51.6155815      -4.69134283      -20.0000000       1688.15320       1.61052096    
  -51.4683685      -3.18431592      -20.0000000       1688.15320       1.61052096    
  -50.1564102      -3.12996602      -20.0000000       1688.15320       1.61052096    
  -54.6488190       1.11988902      -20.0000000       1731.93347       1.60904527    
  -53.2043991       1.01675200      -20.0000000       1731.93347       1.60904527    
  -53.3087082     -0.726661325      -20.0000000       1731.93347       1.60904527    
  -54.8835487     -0.325594515      -20.0000000       1731.93347       1.60904527    
  -51.4683685      -3.18431592      -20.0000000       1794.55798       1.60789526    
  -52.7235603      -2.92538095      -20.0000000       1794.55798       1.60789526    
  -51.8859215      -1.67511594      -20.0000000       1794.55798       1.60789526    
  -51.8859215      -1.67511594      -20.0000000       1794.55798       1.60789526    
  -55.6295395       2.91055298      -20.0000000       1127.18372       1.63002360    
  -56.1067696       1.60355306      -20.0000000       1127.18372       1.63002360    
  -57.5863686       2.23558092      -20.0000000       1127.18372       1.63002360    
  -56.8836594       3.56473303      -20.0000000       1127.18372       1.63002360    
  -47.2866096      -6.25000000      -20.0000000       1380.70837       1.62026978    
  -48.7928200      -6.25000000      -20.0000000       1380.70837       1.62026978    
  -48.7387619      -4.69004917      -20.0000000       1380.70837       1.62026978    
  -47.2626686      -4.68801212      -20.0000000       1380.70837       1.62026978    
  -48.7387619      -4.69004917      -20.0000000       1756.39441       1.60906923    
  -50.1911316      -4.70199823      -20.0000000       1756.39441       1.60906923    
  -50.1564102      -3.12996602      -20.0000000       1756.39441       1.60906923    
  -48.7254105      -3.12169194      -20.0000000       1756.39441       1.60906923    
  -50.1564102      -3.12996602      -20.0000000       1887.69153       1.60609734    
  -51.4683685      -3.18431592      -20.0000000       1887.69153       1.60609734    
  -51.8859215      -1.67511594      -20.0000000       1887.69153       1.60609734    
  -50.2854195      -1.59545600      -20.0000000       1887.69153       1.60609734    
  -54.6488190       1.11988902      -20.0000000       1488.86646       1.61541259    
  -56.1067696       1.60355306      -20.0000000       1488.86646       1.61541259    
  -55.6295395       2.91055298      -20.0000000       1488.86646       1.61541259    
  -54.3531990       2.57653904      -20.0000000       1488.86646       1.61541259    
  -51.7686501     -0.191007897      -20.0000000       1883.13708       1.60602713    
  -51.8859215      -1.67511594      -20.0000000       1883.13708       1.60602713    
  -53.3087082     -0.726661325      -20.0000000       1883.13708       1.60602713    
  -53.3087082     -0.726661325      -20.0000000       1883.13708       1.60602713    
  -51.7686501     -0.191007897      -20.0000000       1877.18701       1.60611570    
  -53.3087082     -0.726661325      -20.0000000       1877.18701       1.60611570    
  -53.2043991       1.01675200      -20.0000000       1877.18701       1.60611570    
  -51.7500000       1.29565406      -20.0000000       1877.18701       1.60611570    
  -53.0367393       2.70281792      -20.0000000       1692.65039       1.61000824    
  -53.2043991       1.01675200      -20.0000000       1692.65039       1.61000824    
  -54.6488190       1.11988902      -20.0000000       1692.65039       1.61000824    
  -54.3531990       2.57653904      -20.0000000       1692.65039       1.61000824    
  -45.7804108      -6.25000000      -20.0000000       1404.43237       1.61962235    
  -47.2866096      -6.25000000      -20.0000000       1404.43237       1.61962235    
  -47.2626686      -4.68801212      -20.0000000       1404.43237       1.61962235    
  -45.7679100      -4.68779421      -20.0000000       1404.43237       1.61962235    
  -47.2626686      -4.68801212      -20.0000000       1804.21484       1.60817623    
  -48.7387619      -4.69004917      -20.0000000       1804.21484       1.60817623    
  -48.7254105      -3.12169194      -20.0000000       1804.21484       1.60817623    
  -47.2550507      -3.12222195      -20.0000000       1804.21484       1.60817623    
  -54.5736809       4.04919481      -20.0000000       1120.99585       1.63055682    
  -55.6295395       2.91055298      -20.0000000       1120.99585       1.63055682    
  -56.8836594       3.56473303      -20.0000000       1120.99585       1.63055682    
  -55.8850899       4.68635893      -20.0000000       1120.99585       1.63055682    
  -48.7254105      -3.12169194      -20.0000000       1964.13721       1.60480893    
  -50.1564102      -3.12996602      -20.0000000       1964.13721       1.60480893    
  -50.2854195      -1.59545600      -20.0000000       1964.13721       1.60480893    
  -48.7658615      -1.56390297      -20.0000000       1964.13721       1.60480893    
  -50.2854195      -1.59545600      -20.0000000       1972.02454       1.60449398    
  -51.8859215      -1.67511594      -20.0000000       1972.02454       1.60449398    
  -51.7686501     -0.191007897      -20.0000000       1972.02454       1.60449398    
  -50.2816200      -7.23225027E-02  -20.0000000       1972.02454       1.60449398    
  -55.6295395       2.91055298      -20.0000000       1414.60962       1.61791766    
  -54.5736809       4.04919481      -20.0000000       1414.60962       1.61791766    
  -54.3531990       2.57653904      -20.0000000       1414.60962       1.61791766    
  -54.3531990       2.57653904      -20.0000000       1414.60962       1.61791766    
  -51.6464691       2.90894699      -20.0000000       1817.09766       1.60736549    
  -51.7500000       1.29565406      -20.0000000       1817.09766       1.60736549    
  -53.2043991       1.01675200      -20.0000000       1817.09766       1.60736549    
  -53.0367393       2.70281792      -20.0000000       1817.09766       1.60736549    
  -44.2742119      -6.25000000      -20.0000000       1419.77271       1.61928546    
  -45.7804108      -6.25000000      -20.0000000       1419.77271       1.61928546    
  -45.7679100      -4.68779421      -20.0000000       1419.77271       1.61928546    
  -44.2670212      -4.68766403      -20.0000000       1419.77271       1.61928546    
  -45.7679100      -4.68779421      -20.0000000       1837.92993       1.60761797    
  -47.2626686      -4.68801212      -20.0000000       1837.92993       1.60761797    
  -47.2550507      -3.12222195      -20.0000000       1837.92993       1.60761797    
  -45.7611885      -3.12411094      -20.0000000       1837.92993       1.60761797    
  -51.7500000       1.29565406      -20.0000000       1982.05945       1.60431933    
  -50.2459984       1.47492099      -20.0000000       1982.05945       1.60431933    
  -50.2816200      -7.23225027E-02  -20.0000000       1982.05945       1.60431933    
  -51.7686501     -0.191007897      -20.0000000       1982.05945       1.60431933    
  -47.2550507      -3.12222195      -20.0000000       2018.85559       1.60398364    
  -48.7254105      -3.12169194      -20.0000000       2018.85559       1.60398364    
  -48.7658615      -1.56390297      -20.0000000       2018.85559       1.60398364    
  -47.2643318      -1.55986798      -20.0000000       2018.85559       1.60398364    
  -48.7658615      -1.56390297      -20.0000000       2055.34033       1.60320783    
  -50.2854195      -1.59545600      -20.0000000       2055.34033       1.60320783    
  -50.2816200      -7.23225027E-02  -20.0000000       2055.34033       1.60320783    
  -48.7753716      -1.42937005E-02  -20.0000000       2055.34033       1.60320783    
  -54.5736809       4.04919481      -20.0000000       1527.83081       1.61445308    
  -53.0954399       4.36336088      -20.0000000       1527.83081       1.61445308    
  -53.0367393       2.70281792      -20.0000000       1527.83081       1.61445308    
  -54.3531990       2.57653904      -20.0000000       1527.83081       1.61445308    
  -54.6465797       5.53822613      -20.0000000       1031.03394       1.63612342    
  -54.5736809       4.04919481      -20.0000000       1031.03394       1.63612342    
  -55.8850899       4.68635893      -20.0000000       1031.03394       1.63612342    
  -55.8850899       4.68635893      -20.0000000       1031.03394       1.63612342    
  -44.2670212      -4.68766403      -20.0000000       1429.27136       1.61915112    
  -42.7620697      -4.68767691      -20.0000000       1429.27136       1.61915112    
  -42.7680206      -6.25000000      -20.0000000       1429.27136       1.61915112    
  -44.2742119      -6.25000000      -20.0000000       1429.27136       1.61915112    
  -44.2670212      -4.68766403      -20.0000000       1861.97046       1.60727310    
  -45.7679100      -4.68779421      -20.0000000       1861.97046       1.60727310    
  -45.7611885      -3.12411094      -20.0000000       1861.97046       1.60727310    
  -44.2611694      -3.12488103      -20.0000000       1861.97046       1.60727310    
  -45.7611885      -3.12411094      -20.0000000       2058.49023       1.60345602    
  -47.2550507      -3.12222195      -20.0000000       2058.49023       1.60345602    
  -47.2643318      -1.55986798      -20.0000000       2058.49023       1.60345602    
  -45.7603798      -1.56126106      -20.0000000       2058.49023       1.60345602    
  -50.2459984       1.47492099      -20.0000000       1903.47290       1.60578763    
  -51.7500000       1.29565406      -20.0000000       1903.47290       1.60578763    
  -51.6464691       2.90894699      -20.0000000       1903.47290       1.60578763    
  -50.2011604       3.04989505      -20.0000000       1903.47290       1.60578763    
  -54.6465797       5.53822613      -20.0000000       1176.28223       1.62807083    
  -53.2416306       6.06926107      -20.0000000       1176.28223       1.62807083    
  -53.0954399       4.36336088      -20.0000000       1176.28223       1.62807083    
  -54.5736809       4.04919481      -20.0000000       1176.28223       1.62807083    
  -47.2643318      -1.55986798      -20.0000000       2114.68555       1.60238838    
  -48.7658615      -1.56390297      -20.0000000       2114.68555       1.60238838    
  -48.7753716      -1.42937005E-02  -20.0000000       2114.68555       1.60238838    
  -47.2657204       0.00000000      -20.0000000       2114.68555       1.60238838    
  -48.7753716      -1.42937005E-02  -20.0000000       2058.14111       1.60316181    
  -50.2816200      -7.23225027E-02  -20.0000000       2058.14111       1.60316181    
  -50.2459984       1.47492099      -20.0000000       2058.14111       1.60316181    
  -48.7560692       1.53868604      -20.0000000       2058.14111       1.60316181    
  -51.6464691       2.90894699      -20.0000000       1635.71863       1.61164856    
  -53.0367393       2.70281792      -20.0000000       1635.71863       1.61164856    
  -53.0954399       4.36336088      -20.0000000       1635.71863       1.61164856    
  -51.6648903       4.56408405      -20.0000000       1635.71863       1.61164856    
  -41.2618294      -6.25000000      -20.0000000       1434.47595       1.61916149    
  -42.7680206      -6.25000000      -20.0000000       1434.47595       1.61916149    
  -42.7620697      -4.68767691      -20.0000000       1434.47595       1.61916149    
  -41.2566490      -4.68782711      -20.0000000       1434.47595       1.61916149    
  -44.2611694      -3.12488103      -20.0000000       1878.95874       1.60708177    
  -42.7563400      -3.12513494      -20.0000000       1878.95874       1.60708177    
  -42.7620697      -4.68767691      -20.0000000       1878.95874       1.60708177    
  -44.2670212      -4.68766403      -20.0000000       1878.95874       1.60708177    
  -44.2611694      -3.12488103      -20.0000000       2087.50562       1.60310900    
  -45.7611885      -3.12411094      -20.0000000       2087.50562       1.60310900    
  -45.7603798      -1.56126106      -20.0000000       2087.50562       1.60310900    
  -44.2565308      -1.56226599      -20.0000000       2087.50562       1.60310900    
  -45.7603798      -1.56126106      -20.0000000       2157.72900       1.60186017    
  -47.2643318      -1.55986798      -20.0000000       2157.72900       1.60186017    
  -47.2657204       0.00000000      -20.0000000       2157.72900       1.60186017    
  -45.7582893       0.00000000      -20.0000000       2157.72900       1.60186017    
  -47.2657204       0.00000000      -20.0000000       2115.24170       1.60237885    
  -48.7753716      -1.42937005E-02  -20.0000000       2115.24170       1.60237885    
  -48.7560692       1.53868604      -20.0000000       2115.24170       1.60237885    
  -47.2535896       1.55706894      -20.0000000       2115.24170       1.60237885    
  -48.7560692       1.53868604      -20.0000000       1968.73010       1.60472906    
  -50.2459984       1.47492099      -20.0000000       1968.73010       1.60472906    
  -50.2011604       3.04989505      -20.0000000       1968.73010       1.60472906    
  -48.7281189       3.10503101      -20.0000000       1968.73010       1.60472906    
  -50.2011604       3.04989505      -20.0000000       1707.69946       1.61003017    
  -51.6464691       2.90894699      -20.0000000       1707.69946       1.61003017    
  -51.6648903       4.56408405      -20.0000000       1707.69946       1.61003017    
  -50.2067184       4.64797401      -20.0000000       1707.69946       1.61003017    
  -51.6648903       4.56408405      -20.0000000       1245.61438       1.62504768    
  -53.0954399       4.36336088      -20.0000000       1245.61438       1.62504768    
  -53.2416306       6.06926107      -20.0000000       1245.61438       1.62504768    
  -51.7500000       6.25000000      -20.0000000       1245.61438       1.62504768    
  -39.7556496      -6.25000000      -20.0000000       1436.87122       1.61926818    
  -41.2618294      -6.25000000      -20.0000000       1436.87122       1.61926818    
  -41.2566490      -4.68782711      -20.0000000       1436.87122       1.61926818    
  -39.7507591      -4.68851089      -20.0000000       1436.87122       1.61926818    
  -41.2566490      -4.68782711      -20.0000000       1890.72607       1.60698557    
  -42.7620697      -4.68767691      -20.0000000       1890.72607       1.60698557    
  -42.7563400      -3.12513494      -20.0000000       1890.72607       1.60698557    
  -41.2511406      -3.12541890      -20.0000000       1890.72607       1.60698557    
  -44.2565308      -1.56226599      -20.0000000       2108.55518       1.60290003    
  -42.7509499      -1.56253600      -20.0000000       2108.55518       1.60290003    
  -42.7563400      -3.12513494      -20.0000000       2108.55518       1.60290003    
  -44.2611694      -3.12488103      -20.0000000       2108.55518       1.60290003    
  -44.2565308      -1.56226599      -20.0000000       2189.26636       1.60151303    
  -45.7603798      -1.56126106      -20.0000000       2189.26636       1.60151303    
  -45.7582893       0.00000000      -20.0000000       2189.26636       1.60151303    
  -44.2515602       0.00000000      -20.0000000       2189.26636       1.60151303    
  -45.7582893       0.00000000      -20.0000000       2157.78564       1.60186100    
  -47.2657204       0.00000000      -20.0000000       2157.78564       1.60186100    
  -47.2535896       1.55706894      -20.0000000       2157.78564       1.60186100    
  -45.7509003       1.56100297      -20.0000000       2157.78564       1.60186100    
  -47.2535896       1.55706894      -20.0000000       2019.64148       1.60397208    
  -48.7560692       1.53868604      -20.0000000       2019.64148       1.60397208    
  -48.7281189       3.10503101      -20.0000000       2019.64148       1.60397208    
  -47.2370110       3.11982203      -20.0000000       2019.64148       1.60397208    
  -48.7281189       3.10503101      -20.0000000       1762.47388       1.60893393    
  -50.2011604       3.04989505      -20.0000000       1762.47388       1.60893393    
  -50.2067184       4.64797401      -20.0000000       1762.47388       1.60893393    
  -48.7241211       4.67746210      -20.0000000       1762.47388       1.60893393    
  -50.2067184       4.64797401      -20.0000000       1304.03003       1.62280035    
  -51.6648903       4.56408405      -20.0000000       1304.03003       1.62280035    
  -51.7500000       6.25000000      -20.0000000       1304.03003       1.62280035    
  -50.2455711       6.25000000      -20.0000000       1304.03003       1.62280035    
  -38.2494698      -6.25000000      -20.0000000       1437.27307       1.61942840    
  -39.7556496      -6.25000000      -20.0000000       1437.27307       1.61942840    
  -39.7507591      -4.68851089      -20.0000000       1437.27307       1.61942840    
  -38.2446404      -4.68936491      -20.0000000       1437.27307       1.61942840    
  -39.7507591      -4.68851089      -20.0000000       1898.57642       1.60696435    
  -41.2566490      -4.68782711      -20.0000000       1898.57642       1.60696435    
  -41.2511406      -3.12541890      -20.0000000       1898.57642       1.60696435    
  -39.7453995      -3.12673903      -20.0000000       1898.57642       1.60696435    
  -41.2511406      -3.12541890      -20.0000000       2123.91602       1.60278511    
  -42.7563400      -3.12513494      -20.0000000       2123.91602       1.60278511    
  -42.7509499      -1.56253600      -20.0000000       2123.91602       1.60278511    
  -41.2455711      -1.56282198      -20.0000000       2123.91602       1.60278511    
  -44.2515602       0.00000000      -20.0000000       2212.44141       1.60129774    
  -42.7457504       0.00000000      -20.0000000       2212.44141       1.60129774    
  -42.7509499      -1.56253600      -20.0000000       2212.44141       1.60129774    
  -44.2565308      -1.56226599      -20.0000000       2212.44141       1.60129774    
  -44.2515602       0.00000000      -20.0000000       2189.32446       1.60151613    
  -45.7582893       0.00000000      -20.0000000       2189.32446       1.60151613    
  -45.7509003       1.56100297      -20.0000000       2189.32446       1.60151613    
  -44.2452011       1.56199801      -20.0000000       2189.32446       1.60151613    
  -45.7509003       1.56100297      -20.0000000       2058.44214       1.60345984    
  -47.2535896       1.55706894      -20.0000000       2058.44214       1.60345984    
  -47.2370110       3.11982203      -20.0000000       2058.44214       1.60345984    
  -45.7402802       3.12332392      -20.0000000       2058.44214       1.60345984    
  -47.2370110       3.11982203      -20.0000000       1805.49878       1.60815263    
  -48.7281189       3.10503101      -20.0000000       1805.49878       1.60815263    
  -48.7241211       4.67746210      -20.0000000       1805.49878       1.60815263    
  -47.2300911       4.68496799      -20.0000000       1805.49878       1.60815263    
  -48.7241211       4.67746210      -20.0000000       1350.20239       1.62120008    
  -50.2067184       4.64797401      -20.0000000       1350.20239       1.62120008    
  -50.2455711       6.25000000      -20.0000000       1350.20239       1.62120008    
  -48.7411499       6.25000000      -20.0000000       1350.20239       1.62120008    
  -36.7432899      -6.25000000      -20.0000000       1436.32104       1.61963677    
  -38.2494698      -6.25000000      -20.0000000       1436.32104       1.61963677    
  -38.2446404      -4.68936491      -20.0000000       1436.32104       1.61963677    
  -36.7384796      -4.68897390      -20.0000000       1436.32104       1.61963677    
  -38.2446404      -4.68936491      -20.0000000       1903.69617       1.60699427    
  -39.7507591      -4.68851089      -20.0000000       1903.69617       1.60699427    
  -39.7453995      -3.12673903      -20.0000000       1903.69617       1.60699427    
  -38.2396507      -3.12933803      -20.0000000       1903.69617       1.60699427    
  -39.7453995      -3.12673903      -20.0000000       2134.85986       1.60272968    
  -41.2511406      -3.12541890      -20.0000000       2134.85986       1.60272968    
  -41.2455711      -1.56282198      -20.0000000       2134.85986       1.60272968    
  -39.7399902      -1.56351995      -20.0000000       2134.85986       1.60272968    
  -41.2455711      -1.56282198      -20.0000000       2229.56567       1.60116923    
  -42.7509499      -1.56253600      -20.0000000       2229.56567       1.60116923    
  -42.7457504       0.00000000      -20.0000000       2229.56567       1.60116923    
  -41.2401695       0.00000000      -20.0000000       2229.56567       1.60116923    
  -44.2452011       1.56199801      -20.0000000       2212.37451       1.60130179    
  -42.7402611       1.56238496      -20.0000000       2212.37451       1.60130179    
  -42.7457504       0.00000000      -20.0000000       2212.37451       1.60130179    
  -44.2515602       0.00000000      -20.0000000       2212.37451       1.60130179    
  -44.2452011       1.56199801      -20.0000000       2087.25098       1.60311770    
  -45.7509003       1.56100297      -20.0000000       2087.25098       1.60311770    
  -45.7402802       3.12332392      -20.0000000       2087.25098       1.60311770    
  -44.2380295       3.12447906      -20.0000000       2087.25098       1.60311770    
  -45.7402802       3.12332392      -20.0000000       1838.22510       1.60761476    
  -47.2370110       3.11982203      -20.0000000       1838.22510       1.60761476    
  -47.2300911       4.68496799      -20.0000000       1838.22510       1.60761476    
  -45.7329903       4.68700409      -20.0000000       1838.22510       1.60761476    
  -47.2300911       4.68496799      -20.0000000       1382.34033       1.62021422    
  -48.7241211       4.67746210      -20.0000000       1382.34033       1.62021422    
  -48.7411499       6.25000000      -20.0000000       1382.34033       1.62021422    
  -47.2367287       6.25000000      -20.0000000       1382.34033       1.62021422    
  -35.2371101      -6.25000000      -20.0000000       1434.81299       1.61984777    
  -36.7432899      -6.25000000      -20.0000000       1434.81299       1.61984777    
  -36.7384796      -4.68897390      -20.0000000       1434.81299       1.61984777    
  -35.2325211      -4.68835878      -20.0000000       1434.81299       1.61984777    
  -36.7384796      -4.68897390      -20.0000000       1906.93640       1.60705161    
  -38.2446404      -4.68936491      -20.0000000       1906.93640       1.60705161    
  -38.2396507      -3.12933803      -20.0000000       1906.93640       1.60705161    
  -36.7339096      -3.12783909      -20.0000000       1906.93640       1.60705161    
  -38.2396507      -3.12933803      -20.0000000       2142.73804       1.60272062    
  -39.7453995      -3.12673903      -20.0000000       2142.73804       1.60272062    
  -39.7399902      -1.56351995      -20.0000000       2142.73804       1.60272062    
  -38.2346497      -1.56438303      -20.0000000       2142.73804       1.60272062    
  -39.7399902      -1.56351995      -20.0000000       2241.79565       1.60111058    
  -41.2455711      -1.56282198      -20.0000000       2241.79565       1.60111058    
  -41.2401695       0.00000000      -20.0000000       2241.79565       1.60111058    