 VARIABLES="X" "Y" "Z" "abs(p) (Pa)" "angle(p) (rad)"
ZONE N=   3650,E =    3624, F=FEPOINT, ET=QUADRILATERAL
  -56.5164909      -2.47323704      -20.0000000       1041.31958      0.730994999    
  -55.4176407      -3.26747894      -20.0000000       1041.31958      0.730994999    
  -55.9264717      -4.64953518      -20.0000000       1041.31958      0.730994999    
  -56.9148483      -3.51935697      -20.0000000       1041.31958      0.730994999    
  -56.9148483      -3.51935697      -20.0000000       1051.03796      0.834516883    
  -57.6058807      -2.18402195      -20.0000000       1051.03796      0.834516883    
  -56.5164909      -2.47323704      -20.0000000       1051.03796      0.834516883    
  -56.5164909      -2.47323704      -20.0000000       1051.03796      0.834516883    
  -54.6953812      -5.51239681      -20.0000000       1032.40857      0.648346901    
  -55.9264717      -4.64953518      -20.0000000       1032.40857      0.648346901    
  -55.4176407      -3.26747894      -20.0000000       1032.40857      0.648346901    
  -54.2450790      -3.94889998      -20.0000000       1032.40857      0.648346901    
  -54.2450790      -3.94889998      -20.0000000       1026.80981      0.573465824    
  -52.9834785      -4.46340179      -20.0000000       1026.80981      0.573465824    
  -53.2955093      -6.05576801      -20.0000000       1026.80981      0.573465824    
  -54.6953812      -5.51239681      -20.0000000       1026.80981      0.573465824    
  -56.5223999      -1.11500299      -20.0000000       1073.61975      0.786351740    
  -56.5164909      -2.47323704      -20.0000000       1073.61975      0.786351740    
  -57.6058807      -2.18402195      -20.0000000       1073.61975      0.786351740    
  -57.9577713     -0.724482894      -20.0000000       1073.61975      0.786351740    
  -56.5164909      -2.47323704      -20.0000000       1112.69409      0.609075189    
  -56.5223999      -1.11500299      -20.0000000       1112.69409      0.609075189    
  -55.1657600      -1.76926601      -20.0000000       1112.69409      0.609075189    
  -55.4176407      -3.26747894      -20.0000000       1112.69409      0.609075189    
  -54.2450790      -3.94889998      -20.0000000       1153.01526      0.529559910    
  -55.4176407      -3.26747894      -20.0000000       1153.01526      0.529559910    
  -55.1657600      -1.76926601      -20.0000000       1153.01526      0.529559910    
  -53.8819199      -2.32836604      -20.0000000       1153.01526      0.529559910    
  -52.9834785      -4.46340179      -20.0000000       1032.24792      0.504311621    
  -51.6155815      -4.69134283      -20.0000000       1032.24792      0.504311621    
  -51.8049088      -6.24783087      -20.0000000       1032.24792      0.504311621    
  -53.2955093      -6.05576801      -20.0000000       1032.24792      0.504311621    
  -56.3964119      0.254809886      -20.0000000       1086.89490      0.766876698    
  -56.5223999      -1.11500299      -20.0000000       1086.89490      0.766876698    
  -57.9577713     -0.724482894      -20.0000000       1086.89490      0.766876698    
  -57.9511719      0.779103875      -20.0000000       1086.89490      0.766876698    
  -53.8819199      -2.32836604      -20.0000000       1180.68628      0.484510571    
  -52.7235603      -2.92538095      -20.0000000       1180.68628      0.484510571    
  -52.9834785      -4.46340179      -20.0000000       1180.68628      0.484510571    
  -54.2450790      -3.94889998      -20.0000000       1180.68628      0.484510571    
  -56.5223999      -1.11500299      -20.0000000       1152.08606      0.568150103    
  -56.3964119      0.254809886      -20.0000000       1152.08606      0.568150103    
  -54.8835487     -0.325594515      -20.0000000       1152.08606      0.568150103    
  -55.1657600      -1.76926601      -20.0000000       1152.08606      0.568150103    
  -50.2990494      -6.25000000      -20.0000000       1053.28809      0.450766742    
  -51.8049088      -6.24783087      -20.0000000       1053.28809      0.450766742    
  -51.6155815      -4.69134283      -20.0000000       1053.28809      0.450766742    
  -50.1911316      -4.70199823      -20.0000000       1053.28809      0.450766742    
  -53.8819199      -2.32836604      -20.0000000       1225.08105      0.485214651    
  -55.1657600      -1.76926601      -20.0000000       1225.08105      0.485214651    
  -54.8835487     -0.325594515      -20.0000000       1225.08105      0.485214651    
  -53.3087082     -0.726661325      -20.0000000       1225.08105      0.485214651    
  -52.7235603      -2.92538095      -20.0000000       1205.05188      0.453979880    
  -51.4683685      -3.18431592      -20.0000000       1205.05188      0.453979880    
  -51.6155815      -4.69134283      -20.0000000       1205.05188      0.453979880    
  -52.9834785      -4.46340179      -20.0000000       1205.05188      0.453979880    
  -56.1067696       1.60355306      -20.0000000       1085.11609      0.750384629    
  -56.3964119      0.254809886      -20.0000000       1085.11609      0.750384629    
  -57.9511719      0.779103875      -20.0000000       1085.11609      0.750384629    
  -57.5863686       2.23558092      -20.0000000       1085.11609      0.750384629    
  -56.3964119      0.254809886      -20.0000000       1166.10559      0.550159633    
  -56.1067696       1.60355306      -20.0000000       1166.10559      0.550159633    
  -54.6488190       1.11988902      -20.0000000       1166.10559      0.550159633    
  -54.8835487     -0.325594515      -20.0000000       1166.10559      0.550159633    
  -51.8859215      -1.67511594      -20.0000000       1275.06812      0.449443996    
  -52.7235603      -2.92538095      -20.0000000       1275.06812      0.449443996    
  -53.8819199      -2.32836604      -20.0000000       1275.06812      0.449443996    
  -53.3087082     -0.726661325      -20.0000000       1275.06812      0.449443996    
  -48.7928200      -6.25000000      -20.0000000       1076.56702      0.419474661    
  -50.2990494      -6.25000000      -20.0000000       1076.56702      0.419474661    
  -50.1911316      -4.70199823      -20.0000000       1076.56702      0.419474661    
  -48.7387619      -4.69004917      -20.0000000       1076.56702      0.419474661    
  -50.1911316      -4.70199823      -20.0000000       1237.79199      0.434859276    
  -51.6155815      -4.69134283      -20.0000000       1237.79199      0.434859276    
  -51.4683685      -3.18431592      -20.0000000       1237.79199      0.434859276    
  -50.1564102      -3.12996602      -20.0000000       1237.79199      0.434859276    
  -54.6488190       1.11988902      -20.0000000       1252.85437      0.469841748    
  -53.2043991       1.01675200      -20.0000000       1252.85437      0.469841748    
  -53.3087082     -0.726661325      -20.0000000       1252.85437      0.469841748    
  -54.8835487     -0.325594515      -20.0000000       1252.85437      0.469841748    
  -51.4683685      -3.18431592      -20.0000000       1284.94385      0.439622164    
  -52.7235603      -2.92538095      -20.0000000       1284.94385      0.439622164    
  -51.8859215      -1.67511594      -20.0000000       1284.94385      0.439622164    
  -51.8859215      -1.67511594      -20.0000000       1284.94385      0.439622164    
  -55.6295395       2.91055298      -20.0000000       1068.96191      0.732757151    
  -56.1067696       1.60355306      -20.0000000       1068.96191      0.732757151    
  -57.5863686       2.23558092      -20.0000000       1068.96191      0.732757151    
  -56.8836594       3.56473303      -20.0000000       1068.96191      0.732757151    
  -47.2866096      -6.25000000      -20.0000000       1090.46338      0.404860735    
  -48.7928200      -6.25000000      -20.0000000       1090.46338      0.404860735    
  -48.7387619      -4.69004917      -20.0000000       1090.46338      0.404860735    
  -47.2626686      -4.68801212      -20.0000000       1090.46338      0.404860735    
  -48.7387619      -4.69004917      -20.0000000       1269.66882      0.429990917    
  -50.1911316      -4.70199823      -20.0000000       1269.66882      0.429990917    
  -50.1564102      -3.12996602      -20.0000000       1269.66882      0.429990917    
  -48.7254105      -3.12169194      -20.0000000       1269.66882      0.429990917    
  -50.1564102      -3.12996602      -20.0000000       1330.10828      0.431543142    
  -51.4683685      -3.18431592      -20.0000000       1330.10828      0.431543142    
  -51.8859215      -1.67511594      -20.0000000       1330.10828      0.431543142    
  -50.2854195      -1.59545600      -20.0000000       1330.10828      0.431543142    
  -54.6488190       1.11988902      -20.0000000       1155.93823      0.546090364    
  -56.1067696       1.60355306      -20.0000000       1155.93823      0.546090364    
  -55.6295395       2.91055298      -20.0000000       1155.93823      0.546090364    
  -54.3531990       2.57653904      -20.0000000       1155.93823      0.546090364    
  -51.7686501     -0.191007897      -20.0000000       1324.42859      0.436278760    
  -51.8859215      -1.67511594      -20.0000000       1324.42859      0.436278760    
  -53.3087082     -0.726661325      -20.0000000       1324.42859      0.436278760    
  -53.3087082     -0.726661325      -20.0000000       1324.42859      0.436278760    
  -51.7686501     -0.191007897      -20.0000000       1321.00256      0.437598258    
  -53.3087082     -0.726661325      -20.0000000       1321.00256      0.437598258    
  -53.2043991       1.01675200      -20.0000000       1321.00256      0.437598258    
  -51.7500000       1.29565406      -20.0000000       1321.00256      0.437598258    
  -53.0367393       2.70281792      -20.0000000       1236.34424      0.472160280    
  -53.2043991       1.01675200      -20.0000000       1236.34424      0.472160280    
  -54.6488190       1.11988902      -20.0000000       1236.34424      0.472160280    
  -54.3531990       2.57653904      -20.0000000       1236.34424      0.472160280    
  -45.7804108      -6.25000000      -20.0000000       1095.03271      0.402225316    
  -47.2866096      -6.25000000      -20.0000000       1095.03271      0.402225316    
  -47.2626686      -4.68801212      -20.0000000       1095.03271      0.402225316    
  -45.7679100      -4.68779421      -20.0000000       1095.03271      0.402225316    
  -47.2626686      -4.68801212      -20.0000000       1289.24976      0.437314063    
  -48.7387619      -4.69004917      -20.0000000       1289.24976      0.437314063    
  -48.7254105      -3.12169194      -20.0000000       1289.24976      0.437314063    
  -47.2550507      -3.12222195      -20.0000000       1289.24976      0.437314063    
  -54.5736809       4.04919481      -20.0000000       1042.97046      0.691025257    
  -55.6295395       2.91055298      -20.0000000       1042.97046      0.691025257    
  -56.8836594       3.56473303      -20.0000000       1042.97046      0.691025257    
  -55.8850899       4.68635893      -20.0000000       1042.97046      0.691025257    
  -48.7254105      -3.12169194      -20.0000000       1366.85632      0.435143828    
  -50.1564102      -3.12996602      -20.0000000       1366.85632      0.435143828    
  -50.2854195      -1.59545600      -20.0000000       1366.85632      0.435143828    
  -48.7658615      -1.56390297      -20.0000000       1366.85632      0.435143828    
  -50.2854195      -1.59545600      -20.0000000       1368.93567      0.430099338    
  -51.8859215      -1.67511594      -20.0000000       1368.93567      0.430099338    
  -51.7686501     -0.191007897      -20.0000000       1368.93567      0.430099338    
  -50.2816200      -7.23225027E-02  -20.0000000       1368.93567      0.430099338    
  -55.6295395       2.91055298      -20.0000000       1125.00464      0.553346694    
  -54.5736809       4.04919481      -20.0000000       1125.00464      0.553346694    
  -54.3531990       2.57653904      -20.0000000       1125.00464      0.553346694    
  -54.3531990       2.57653904      -20.0000000       1125.00464      0.553346694    
  -51.6464691       2.90894699      -20.0000000       1294.20117      0.440814614    
  -51.7500000       1.29565406      -20.0000000       1294.20117      0.440814614    
  -53.2043991       1.01675200      -20.0000000       1294.20117      0.440814614    
  -53.0367393       2.70281792      -20.0000000       1294.20117      0.440814614    
  -44.2742119      -6.25000000      -20.0000000       1091.39038      0.409573317    
  -45.7804108      -6.25000000      -20.0000000       1091.39038      0.409573317    
  -45.7679100      -4.68779421      -20.0000000       1091.39038      0.409573317    
  -44.2670212      -4.68766403      -20.0000000       1091.39038      0.409573317    
  -45.7679100      -4.68779421      -20.0000000       1297.95020      0.454304278    
  -47.2626686      -4.68801212      -20.0000000       1297.95020      0.454304278    
  -47.2550507      -3.12222195      -20.0000000       1297.95020      0.454304278    
  -45.7611885      -3.12411094      -20.0000000       1297.95020      0.454304278    
  -51.7500000       1.29565406      -20.0000000       1373.53516      0.429488420    
  -50.2459984       1.47492099      -20.0000000       1373.53516      0.429488420    
  -50.2816200      -7.23225027E-02  -20.0000000       1373.53516      0.429488420    
  -51.7686501     -0.191007897      -20.0000000       1373.53516      0.429488420    
  -47.2550507      -3.12222195      -20.0000000       1390.04968      0.450554132    
  -48.7254105      -3.12169194      -20.0000000       1390.04968      0.450554132    
  -48.7658615      -1.56390297      -20.0000000       1390.04968      0.450554132    
  -47.2643318      -1.55986798      -20.0000000       1390.04968      0.450554132    
  -48.7658615      -1.56390297      -20.0000000       1409.49426      0.437092066    
  -50.2854195      -1.59545600      -20.0000000       1409.49426      0.437092066    
  -50.2816200      -7.23225027E-02  -20.0000000       1409.49426      0.437092066    
  -48.7753716      -1.42937005E-02  -20.0000000       1409.49426      0.437092066    
  -54.5736809       4.04919481      -20.0000000       1166.18591      0.497110724    
  -53.0954399       4.36336088      -20.0000000       1166.18591      0.497110724    
  -53.0367393       2.70281792      -20.0000000       1166.18591      0.497110724    
  -54.3531990       2.57653904      -20.0000000       1166.18591      0.497110724    
  -54.6465797       5.53822613      -20.0000000       997.876404      0.687444031    
  -54.5736809       4.04919481      -20.0000000       997.876404      0.687444031    
  -55.8850899       4.68635893      -20.0000000       997.876404      0.687444031    
  -55.8850899       4.68635893      -20.0000000       997.876404      0.687444031    
  -44.2670212      -4.68766403      -20.0000000       1080.25732      0.425533086    
  -42.7620697      -4.68767691      -20.0000000       1080.25732      0.425533086    
  -42.7680206      -6.25000000      -20.0000000       1080.25732      0.425533086    
  -44.2742119      -6.25000000      -20.0000000       1080.25732      0.425533086    
  -44.2670212      -4.68766403      -20.0000000       1297.27246      0.479601026    
  -45.7679100      -4.68779421      -20.0000000       1297.27246      0.479601026    
  -45.7611885      -3.12411094      -20.0000000       1297.27246      0.479601026    
  -44.2611694      -3.12488103      -20.0000000       1297.27246      0.479601026    
  -45.7611885      -3.12411094      -20.0000000       1401.64331      0.474990964    
  -47.2550507      -3.12222195      -20.0000000       1401.64331      0.474990964    
  -47.2643318      -1.55986798      -20.0000000       1401.64331      0.474990964    
  -45.7603798      -1.56126106      -20.0000000       1401.64331      0.474990964    
  -50.2459984       1.47492099      -20.0000000       1337.27295      0.430612653    
  -51.7500000       1.29565406      -20.0000000       1337.27295      0.430612653    
  -51.6464691       2.90894699      -20.0000000       1337.27295      0.430612653    
  -50.2011604       3.04989505      -20.0000000       1337.27295      0.430612653    
  -54.6465797       5.53822613      -20.0000000       1024.87195      0.577387214    
  -53.2416306       6.06926107      -20.0000000       1024.87195      0.577387214    
  -53.0954399       4.36336088      -20.0000000       1024.87195      0.577387214    
  -54.5736809       4.04919481      -20.0000000       1024.87195      0.577387214    
  -47.2643318      -1.55986798      -20.0000000       1435.04810      0.455772877    
  -48.7658615      -1.56390297      -20.0000000       1435.04810      0.455772877    
  -48.7753716      -1.42937005E-02  -20.0000000       1435.04810      0.455772877    
  -47.2657204       0.00000000      -20.0000000       1435.04810      0.455772877    
  -48.7753716      -1.42937005E-02  -20.0000000       1410.77722      0.437078983    
  -50.2816200      -7.23225027E-02  -20.0000000       1410.77722      0.437078983    
  -50.2459984       1.47492099      -20.0000000       1410.77722      0.437078983    
  -48.7560692       1.53868604      -20.0000000       1410.77722      0.437078983    
  -51.6464691       2.90894699      -20.0000000       1212.55420      0.454457164    
  -53.0367393       2.70281792      -20.0000000       1212.55420      0.454457164    
  -53.0954399       4.36336088      -20.0000000       1212.55420      0.454457164    
  -51.6648903       4.56408405      -20.0000000       1212.55420      0.454457164    
  -41.2618294      -6.25000000      -20.0000000       1062.37207      0.449452370    
  -42.7680206      -6.25000000      -20.0000000       1062.37207      0.449452370    
  -42.7620697      -4.68767691      -20.0000000       1062.37207      0.449452370    
  -41.2566490      -4.68782711      -20.0000000       1062.37207      0.449452370    
  -44.2611694      -3.12488103      -20.0000000       1288.37366      0.512242615    
  -42.7563400      -3.12513494      -20.0000000       1288.37366      0.512242615    
  -42.7620697      -4.68767691      -20.0000000       1288.37366      0.512242615    
  -44.2670212      -4.68766403      -20.0000000       1288.37366      0.512242615    
  -44.2611694      -3.12488103      -20.0000000       1403.35327      0.507097840    
  -45.7611885      -3.12411094      -20.0000000       1403.35327      0.507097840    
  -45.7603798      -1.56126106      -20.0000000       1403.35327      0.507097840    
  -44.2565308      -1.56226599      -20.0000000       1403.35327      0.507097840    
  -45.7603798      -1.56126106      -20.0000000       1448.32312      0.483276516    
  -47.2643318      -1.55986798      -20.0000000       1448.32312      0.483276516    
  -47.2657204       0.00000000      -20.0000000       1448.32312      0.483276516    
  -45.7582893       0.00000000      -20.0000000       1448.32312      0.483276516    
  -47.2657204       0.00000000      -20.0000000       1435.27820      0.455756038    
  -48.7753716      -1.42937005E-02  -20.0000000       1435.27820      0.455756038    
  -48.7560692       1.53868604      -20.0000000       1435.27820      0.455756038    
  -47.2535896       1.55706894      -20.0000000       1435.27820      0.455756038    
  -48.7560692       1.53868604      -20.0000000       1368.96155      0.434908926    
  -50.2459984       1.47492099      -20.0000000       1368.96155      0.434908926    
  -50.2011604       3.04989505      -20.0000000       1368.96155      0.434908926    
  -48.7281189       3.10503101      -20.0000000       1368.96155      0.434908926    
  -50.2011604       3.04989505      -20.0000000       1246.76990      0.434440225    
  -51.6464691       2.90894699      -20.0000000       1246.76990      0.434440225    
  -51.6648903       4.56408405      -20.0000000       1246.76990      0.434440225    
  -50.2067184       4.64797401      -20.0000000       1246.76990      0.434440225    
  -51.6648903       4.56408405      -20.0000000       1039.72766      0.501249731    
  -53.0954399       4.36336088      -20.0000000       1039.72766      0.501249731    
  -53.2416306       6.06926107      -20.0000000       1039.72766      0.501249731    
  -51.7500000       6.25000000      -20.0000000       1039.72766      0.501249731    
  -39.7556496      -6.25000000      -20.0000000       1038.68005      0.480977565    
  -41.2618294      -6.25000000      -20.0000000       1038.68005      0.480977565    
  -41.2566490      -4.68782711      -20.0000000       1038.68005      0.480977565    
  -39.7507591      -4.68851089      -20.0000000       1038.68005      0.480977565    
  -41.2566490      -4.68782711      -20.0000000       1272.36401      0.551638007    
  -42.7620697      -4.68767691      -20.0000000       1272.36401      0.551638007    
  -42.7563400      -3.12513494      -20.0000000       1272.36401      0.551638007    
  -41.2511406      -3.12541890      -20.0000000       1272.36401      0.551638007    
  -44.2565308      -1.56226599      -20.0000000       1396.46033      0.545899868    
  -42.7509499      -1.56253600      -20.0000000       1396.46033      0.545899868    
  -42.7563400      -3.12513494      -20.0000000       1396.46033      0.545899868    
  -44.2611694      -3.12488103      -20.0000000       1396.46033      0.545899868    
  -44.2565308      -1.56226599      -20.0000000       1451.29724      0.518116713    
  -45.7603798      -1.56126106      -20.0000000       1451.29724      0.518116713    
  -45.7582893       0.00000000      -20.0000000       1451.29724      0.518116713    
  -44.2515602       0.00000000      -20.0000000       1451.29724      0.518116713    
  -45.7582893       0.00000000      -20.0000000       1448.30481      0.483307600    
  -47.2657204       0.00000000      -20.0000000       1448.30481      0.483307600    
  -47.2535896       1.55706894      -20.0000000       1448.30481      0.483307600    
  -45.7509003       1.56100297      -20.0000000       1448.30481      0.483307600    
  -47.2535896       1.55706894      -20.0000000       1390.35583      0.450412750    
  -48.7560692       1.53868604      -20.0000000       1390.35583      0.450412750    
  -48.7281189       3.10503101      -20.0000000       1390.35583      0.450412750    
  -47.2370110       3.11982203      -20.0000000       1390.35583      0.450412750    
  -48.7281189       3.10503101      -20.0000000       1272.51001      0.429644346    
  -50.2011604       3.04989505      -20.0000000       1272.51001      0.429644346    
  -50.2067184       4.64797401      -20.0000000       1272.51001      0.429644346    
  -48.7241211       4.67746210      -20.0000000       1272.51001      0.429644346    
  -50.2067184       4.64797401      -20.0000000       1060.44507      0.448945671    
  -51.6648903       4.56408405      -20.0000000       1060.44507      0.448945671    
  -51.7500000       6.25000000      -20.0000000       1060.44507      0.448945671    
  -50.2455711       6.25000000      -20.0000000       1060.44507      0.448945671    
  -38.2494698      -6.25000000      -20.0000000       1010.01038      0.520011067    
  -39.7556496      -6.25000000      -20.0000000       1010.01038      0.520011067    
  -39.7507591      -4.68851089      -20.0000000       1010.01038      0.520011067    
  -38.2446404      -4.68936491      -20.0000000       1010.01038      0.520011067    
  -39.7507591      -4.68851089      -20.0000000       1250.33301      0.597472966    
  -41.2566490      -4.68782711      -20.0000000       1250.33301      0.597472966    
  -41.2511406      -3.12541890      -20.0000000       1250.33301      0.597472966    
  -39.7453995      -3.12673903      -20.0000000       1250.33301      0.597472966    
  -41.2511406      -3.12541890      -20.0000000       1382.40540      0.590988517    
  -42.7563400      -3.12513494      -20.0000000       1382.40540      0.590988517    
  -42.7509499      -1.56253600      -20.0000000       1382.40540      0.590988517    
  -41.2455711      -1.56282198      -20.0000000       1382.40540      0.590988517    
  -44.2515602       0.00000000      -20.0000000       1445.54089      0.559418321    
  -42.7457504       0.00000000      -20.0000000       1445.54089      0.559418321    
  -42.7509499      -1.56253600      -20.0000000       1445.54089      0.559418321    
  -44.2565308      -1.56226599      -20.0000000       1445.54089      0.559418321    
  -44.2515602       0.00000000      -20.0000000       1451.25525      0.518181741    
  -45.7582893       0.00000000      -20.0000000       1451.25525      0.518181741    
  -45.7509003       1.56100297      -20.0000000       1451.25525      0.518181741    
  -44.2452011       1.56199801      -20.0000000       1451.25525      0.518181741    
  -45.7509003       1.56100297      -20.0000000       1401.49402      0.474999070    
  -47.2535896       1.55706894      -20.0000000       1401.49402      0.474999070    
  -47.2370110       3.11982203      -20.0000000       1401.49402      0.474999070    
  -45.7402802       3.12332392      -20.0000000       1401.49402      0.474999070    
  -47.2370110       3.11982203      -20.0000000       1289.77734      0.437029272    
  -48.7281189       3.10503101      -20.0000000       1289.77734      0.437029272    
  -48.7241211       4.67746210      -20.0000000       1289.77734      0.437029272    
  -47.2300911       4.68496799      -20.0000000       1289.77734      0.437029272    
  -48.7241211       4.67746210      -20.0000000       1079.49365      0.418461621    
  -50.2067184       4.64797401      -20.0000000       1079.49365      0.418461621    
  -50.2455711       6.25000000      -20.0000000       1079.49365      0.418461621    
  -48.7411499       6.25000000      -20.0000000       1079.49365      0.418461621    
  -36.7432899      -6.25000000      -20.0000000       977.236816      0.566627383    
  -38.2494698      -6.25000000      -20.0000000       977.236816      0.566627383    
  -38.2446404      -4.68936491      -20.0000000       977.236816      0.566627383    
  -36.7384796      -4.68897390      -20.0000000       977.236816      0.566627383    
  -38.2446404      -4.68936491      -20.0000000       1223.50208      0.649778008    
  -39.7507591      -4.68851089      -20.0000000       1223.50208      0.649778008    
  -39.7453995      -3.12673903      -20.0000000       1223.50208      0.649778008    
  -38.2396507      -3.12933803      -20.0000000       1223.50208      0.649778008    
  -39.7453995      -3.12673903      -20.0000000       1362.23340      0.641943932    
  -41.2511406      -3.12541890      -20.0000000       1362.23340      0.641943932    
  -41.2455711      -1.56282198      -20.0000000       1362.23340      0.641943932    
  -39.7399902      -1.56351995      -20.0000000       1362.23340      0.641943932    
  -41.2455711      -1.56282198      -20.0000000       1432.52490      0.606735110    
  -42.7509499      -1.56253600      -20.0000000       1432.52490      0.606735110    
  -42.7457504       0.00000000      -20.0000000       1432.52490      0.606735110    
  -41.2401695       0.00000000      -20.0000000       1432.52490      0.606735110    
  -44.2452011       1.56199801      -20.0000000       1445.42676      0.559509277    
  -42.7402611       1.56238496      -20.0000000       1445.42676      0.559509277    
  -42.7457504       0.00000000      -20.0000000       1445.42676      0.559509277    
  -44.2515602       0.00000000      -20.0000000       1445.42676      0.559509277    
  -44.2452011       1.56199801      -20.0000000       1403.02808      0.507180512    
  -45.7509003       1.56100297      -20.0000000       1403.02808      0.507180512    
  -45.7402802       3.12332392      -20.0000000       1403.02808      0.507180512    
  -44.2380295       3.12447906      -20.0000000       1403.02808      0.507180512    
  -45.7402802       3.12332392      -20.0000000       1297.89221      0.454284161    
  -47.2370110       3.11982203      -20.0000000       1297.89221      0.454284161    
  -47.2300911       4.68496799      -20.0000000       1297.89221      0.454284161    
  -45.7329903       4.68700409      -20.0000000       1297.89221      0.454284161    
  -47.2300911       4.68496799      -20.0000000       1091.12305      0.404015899    
  -48.7241211       4.67746210      -20.0000000       1091.12305      0.404015899    
  -48.7411499       6.25000000      -20.0000000       1091.12305      0.404015899    
  -47.2367287       6.25000000      -20.0000000       1091.12305      0.404015899    
  -35.2371101      -6.25000000      -20.0000000       941.479675      0.621275425    
  -36.7432899      -6.25000000      -20.0000000       941.479675      0.621275425    
  -36.7384796      -4.68897390      -20.0000000       941.479675      0.621275425    
  -35.2325211      -4.68835878      -20.0000000       941.479675      0.621275425    
  -36.7384796      -4.68897390      -20.0000000       1192.91418      0.708580315    
  -38.2446404      -4.68936491      -20.0000000       1192.91418      0.708580315    
  -38.2396507      -3.12933803      -20.0000000       1192.91418      0.708580315    
  -36.7339096      -3.12783909      -20.0000000       1192.91418      0.708580315    
  -38.2396507      -3.12933803      -20.0000000       1337.33301      0.698840141    
  -39.7453995      -3.12673903      -20.0000000       1337.33301      0.698840141    
  -39.7399902      -1.56351995      -20.0000000       1337.33301      0.698840141    
  -38.2346497      -1.56438303      -20.0000000       1337.33301      0.698840141    
  -39.7399902      -1.56351995      -20.0000000       1413.25305      0.659647107    
  -41.2455711      -1.56282198      -20.0000000       1413.25305      0.659647107    
  -41.2401695       0.00000000      -20.0000000       1413.25305      0.659647107    