 VARIABLES="X" "Y" "Z" "abs(p) (Pa)" "angle(p) (rad)"
ZONE N=   3650,E =    3624, F=FEPOINT, ET=QUADRILATERAL
  -56.5164909      -2.47323704      -20.0000000       2320.48975       1.56950772    
  -55.4176407      -3.26747894      -20.0000000       2320.48975       1.56950772    
  -55.9264717      -4.64953518      -20.0000000       2320.48975       1.56950772    
  -56.9148483      -3.51935697      -20.0000000       2320.48975       1.56950772    
  -56.9148483      -3.51935697      -20.0000000       1883.28760       1.56957519    
  -57.6058807      -2.18402195      -20.0000000       1883.28760       1.56957519    
  -56.5164909      -2.47323704      -20.0000000       1883.28760       1.56957519    
  -56.5164909      -2.47323704      -20.0000000       1883.28760       1.56957519    
  -54.6953812      -5.51239681      -20.0000000       2908.95459       1.56948125    
  -55.9264717      -4.64953518      -20.0000000       2908.95459       1.56948125    
  -55.4176407      -3.26747894      -20.0000000       2908.95459       1.56948125    
  -54.2450790      -3.94889998      -20.0000000       2908.95459       1.56948125    
  -54.2450790      -3.94889998      -20.0000000       3431.32080       1.56947708    
  -52.9834785      -4.46340179      -20.0000000       3431.32080       1.56947708    
  -53.2955093      -6.05576801      -20.0000000       3431.32080       1.56947708    
  -54.6953812      -5.51239681      -20.0000000       3431.32080       1.56947708    
  -56.5223999      -1.11500299      -20.0000000       1023.97894       1.56949377    
  -56.5164909      -2.47323704      -20.0000000       1023.97894       1.56949377    
  -57.6058807      -2.18402195      -20.0000000       1023.97894       1.56949377    
  -57.9577713     -0.724482894      -20.0000000       1023.97894       1.56949377    
  -56.5164909      -2.47323704      -20.0000000       1226.84058       1.56931460    
  -56.5223999      -1.11500299      -20.0000000       1226.84058       1.56931460    
  -55.1657600      -1.76926601      -20.0000000       1226.84058       1.56931460    
  -55.4176407      -3.26747894      -20.0000000       1226.84058       1.56931460    
  -54.2450790      -3.94889998      -20.0000000       1589.72461       1.56925046    
  -55.4176407      -3.26747894      -20.0000000       1589.72461       1.56925046    
  -55.1657600      -1.76926601      -20.0000000       1589.72461       1.56925046    
  -53.8819199      -2.32836604      -20.0000000       1589.72461       1.56925046    
  -52.9834785      -4.46340179      -20.0000000       3829.19971       1.56949532    
  -51.6155815      -4.69134283      -20.0000000       3829.19971       1.56949532    
  -51.8049088      -6.24783087      -20.0000000       3829.19971       1.56949532    
  -53.2955093      -6.05576801      -20.0000000       3829.19971       1.56949532    
  -56.3964119      0.254809886      -20.0000000       109.176033       1.56938088    
  -56.5223999      -1.11500299      -20.0000000       109.176033       1.56938088    
  -57.9577713     -0.724482894      -20.0000000       109.176033       1.56938088    
  -57.9511719      0.779103875      -20.0000000       109.176033       1.56938088    
  -53.8819199      -2.32836604      -20.0000000       1957.50220       1.56924200    
  -52.7235603      -2.92538095      -20.0000000       1957.50220       1.56924200    
  -52.9834785      -4.46340179      -20.0000000       1957.50220       1.56924200    
  -54.2450790      -3.94889998      -20.0000000       1957.50220       1.56924200    
  -56.5223999      -1.11500299      -20.0000000       399.392975       1.56924021    
  -56.3964119      0.254809886      -20.0000000       399.392975       1.56924021    
  -54.8835487     -0.325594515      -20.0000000       399.392975       1.56924021    
  -55.1657600      -1.76926601      -20.0000000       399.392975       1.56924021    
  -50.2990494      -6.25000000      -20.0000000       4058.33496       1.56953013    
  -51.8049088      -6.24783087      -20.0000000       4058.33496       1.56953013    
  -51.6155815      -4.69134283      -20.0000000       4058.33496       1.56953013    
  -50.1911316      -4.70199823      -20.0000000       4058.33496       1.56953013    
  -53.8819199      -2.32836604      -20.0000000       676.691528       1.56914473    
  -55.1657600      -1.76926601      -20.0000000       676.691528       1.56914473    
  -54.8835487     -0.325594515      -20.0000000       676.691528       1.56914473    
  -53.3087082     -0.726661325      -20.0000000       676.691528       1.56914473    
  -52.7235603      -2.92538095      -20.0000000       2256.67822       1.56926644    
  -51.4683685      -3.18431592      -20.0000000       2256.67822       1.56926644    
  -51.6155815      -4.69134283      -20.0000000       2256.67822       1.56926644    
  -52.9834785      -4.46340179      -20.0000000       2256.67822       1.56926644    
  -56.1067696       1.60355306      -20.0000000       780.857483      -1.57212150    
  -56.3964119      0.254809886      -20.0000000       780.857483      -1.57212150    
  -57.9511719      0.779103875      -20.0000000       780.857483      -1.57212150    
  -57.5863686       2.23558092      -20.0000000       780.857483      -1.57212150    
  -56.3964119      0.254809886      -20.0000000       355.958221      -1.57239771    
  -56.1067696       1.60355306      -20.0000000       355.958221      -1.57239771    
  -54.6488190       1.11988902      -20.0000000       355.958221      -1.57239771    
  -54.8835487     -0.325594515      -20.0000000       355.958221      -1.57239771    
  -51.8859215      -1.67511594      -20.0000000       1004.73761       1.56911683    
  -52.7235603      -2.92538095      -20.0000000       1004.73761       1.56911683    
  -53.8819199      -2.32836604      -20.0000000       1004.73761       1.56911683    
  -53.3087082     -0.726661325      -20.0000000       1004.73761       1.56911683    
  -48.7928200      -6.25000000      -20.0000000       4186.34570       1.56957912    
  -50.2990494      -6.25000000      -20.0000000       4186.34570       1.56957912    
  -50.1911316      -4.70199823      -20.0000000       4186.34570       1.56957912    
  -48.7387619      -4.69004917      -20.0000000       4186.34570       1.56957912    
  -50.1911316      -4.70199823      -20.0000000       2390.31299       1.56930852    
  -51.6155815      -4.69134283      -20.0000000       2390.31299       1.56930852    
  -51.4683685      -3.18431592      -20.0000000       2390.31299       1.56930852    
  -50.1564102      -3.12996602      -20.0000000       2390.31299       1.56930852    
  -54.6488190       1.11988902      -20.0000000       128.102432      -1.57267165    
  -53.2043991       1.01675200      -20.0000000       128.102432      -1.57267165    
  -53.3087082     -0.726661325      -20.0000000       128.102432      -1.57267165    
  -54.8835487     -0.325594515      -20.0000000       128.102432      -1.57267165    
  -51.4683685      -3.18431592      -20.0000000       1432.16333       1.56916404    
  -52.7235603      -2.92538095      -20.0000000       1432.16333       1.56916404    
  -51.8859215      -1.67511594      -20.0000000       1432.16333       1.56916404    
  -51.8859215      -1.67511594      -20.0000000       1432.16333       1.56916404    
  -55.6295395       2.91055298      -20.0000000       1659.15369      -1.57211614    
  -56.1067696       1.60355306      -20.0000000       1659.15369      -1.57211614    
  -57.5863686       2.23558092      -20.0000000       1659.15369      -1.57211614    
  -56.8836594       3.56473303      -20.0000000       1659.15369      -1.57211614    
  -47.2866096      -6.25000000      -20.0000000       4283.81738       1.56964386    
  -48.7928200      -6.25000000      -20.0000000       4283.81738       1.56964386    
  -48.7387619      -4.69004917      -20.0000000       4283.81738       1.56964386    
  -47.2626686      -4.68801212      -20.0000000       4283.81738       1.56964386    
  -48.7387619      -4.69004917      -20.0000000       2433.19116       1.56937146    
  -50.1911316      -4.70199823      -20.0000000       2433.19116       1.56937146    
  -50.1564102      -3.12996602      -20.0000000       2433.19116       1.56937146    
  -48.7254105      -3.12169194      -20.0000000       2433.19116       1.56937146    
  -50.1564102      -3.12996602      -20.0000000       1319.95618       1.56917322    
  -51.4683685      -3.18431592      -20.0000000       1319.95618       1.56917322    
  -51.8859215      -1.67511594      -20.0000000       1319.95618       1.56917322    
  -50.2854195      -1.59545600      -20.0000000       1319.95618       1.56917322    
  -54.6488190       1.11988902      -20.0000000       1124.90100      -1.57236338    
  -56.1067696       1.60355306      -20.0000000       1124.90100      -1.57236338    
  -55.6295395       2.91055298      -20.0000000       1124.90100      -1.57236338    
  -54.3531990       2.57653904      -20.0000000       1124.90100      -1.57236338    
  -51.7686501     -0.191007897      -20.0000000       458.163483       1.56911838    
  -51.8859215      -1.67511594      -20.0000000       458.163483       1.56911838    
  -53.3087082     -0.726661325      -20.0000000       458.163483       1.56911838    
  -53.3087082     -0.726661325      -20.0000000       458.163483       1.56911838    
  -51.7686501     -0.191007897      -20.0000000       170.878021      -1.57266760    
  -53.3087082     -0.726661325      -20.0000000       170.878021      -1.57266760    
  -53.2043991       1.01675200      -20.0000000       170.878021      -1.57266760    
  -51.7500000       1.29565406      -20.0000000       170.878021      -1.57266760    
  -53.0367393       2.70281792      -20.0000000       978.786438      -1.57247639    
  -53.2043991       1.01675200      -20.0000000       978.786438      -1.57247639    
  -54.6488190       1.11988902      -20.0000000       978.786438      -1.57247639    
  -54.3531990       2.57653904      -20.0000000       978.786438      -1.57247639    
  -45.7804108      -6.25000000      -20.0000000       4352.25439       1.56972373    
  -47.2866096      -6.25000000      -20.0000000       4352.25439       1.56972373    
  -47.2626686      -4.68801212      -20.0000000       4352.25439       1.56972373    
  -45.7679100      -4.68779421      -20.0000000       4352.25439       1.56972373    
  -47.2626686      -4.68801212      -20.0000000       2487.26538       1.56946456    
  -48.7387619      -4.69004917      -20.0000000       2487.26538       1.56946456    
  -48.7254105      -3.12169194      -20.0000000       2487.26538       1.56946456    
  -47.2550507      -3.12222195      -20.0000000       2487.26538       1.56946456    
  -54.5736809       4.04919481      -20.0000000       2497.67749      -1.57211101    
  -55.6295395       2.91055298      -20.0000000       2497.67749      -1.57211101    
  -56.8836594       3.56473303      -20.0000000       2497.67749      -1.57211101    
  -55.8850899       4.68635893      -20.0000000       2497.67749      -1.57211101    
  -48.7254105      -3.12169194      -20.0000000       1337.90564       1.56924927    
  -50.1564102      -3.12996602      -20.0000000       1337.90564       1.56924927    
  -50.2854195      -1.59545600      -20.0000000       1337.90564       1.56924927    
  -48.7658615      -1.56390297      -20.0000000       1337.90564       1.56924927    
  -50.2854195      -1.59545600      -20.0000000       477.724060       1.56911135    
  -51.8859215      -1.67511594      -20.0000000       477.724060       1.56911135    
  -51.7686501     -0.191007897      -20.0000000       477.724060       1.56911135    
  -50.2816200      -7.23225027E-02  -20.0000000       477.724060       1.56911135    
  -55.6295395       2.91055298      -20.0000000       1827.70349      -1.57230270    
  -54.5736809       4.04919481      -20.0000000       1827.70349      -1.57230270    
  -54.3531990       2.57653904      -20.0000000       1827.70349      -1.57230270    
  -54.3531990       2.57653904      -20.0000000       1827.70349      -1.57230270    
  -51.6464691       2.90894699      -20.0000000       1059.40808      -1.57248735    
  -51.7500000       1.29565406      -20.0000000       1059.40808      -1.57248735    
  -53.2043991       1.01675200      -20.0000000       1059.40808      -1.57248735    
  -53.0367393       2.70281792      -20.0000000       1059.40808      -1.57248735    
  -44.2742119      -6.25000000      -20.0000000       4394.50098       1.56981790    
  -45.7804108      -6.25000000      -20.0000000       4394.50098       1.56981790    
  -45.7679100      -4.68779421      -20.0000000       4394.50098       1.56981790    
  -44.2670212      -4.68766403      -20.0000000       4394.50098       1.56981790    
  -45.7679100      -4.68779421      -20.0000000       2533.24536       1.56957948    
  -47.2626686      -4.68801212      -20.0000000       2533.24536       1.56957948    
  -47.2550507      -3.12222195      -20.0000000       2533.24536       1.56957948    
  -45.7611885      -3.12411094      -20.0000000       2533.24536       1.56957948    
  -51.7500000       1.29565406      -20.0000000       333.288086      -1.57251489    
  -50.2459984       1.47492099      -20.0000000       333.288086      -1.57251489    
  -50.2816200      -7.23225027E-02  -20.0000000       333.288086      -1.57251489    
  -51.7686501     -0.191007897      -20.0000000       333.288086      -1.57251489    
  -47.2550507      -3.12222195      -20.0000000       1366.15967       1.56935906    
  -48.7254105      -3.12169194      -20.0000000       1366.15967       1.56935906    
  -48.7658615      -1.56390297      -20.0000000       1366.15967       1.56935906    
  -47.2643318      -1.55986798      -20.0000000       1366.15967       1.56935906    
  -48.7658615      -1.56390297      -20.0000000       445.384033       1.56918442    
  -50.2854195      -1.59545600      -20.0000000       445.384033       1.56918442    
  -50.2816200      -7.23225027E-02  -20.0000000       445.384033       1.56918442    
  -48.7753716      -1.42937005E-02  -20.0000000       445.384033       1.56918442    
  -54.5736809       4.04919481      -20.0000000       1964.71118      -1.57234859    
  -53.0954399       4.36336088      -20.0000000       1964.71118      -1.57234859    
  -53.0367393       2.70281792      -20.0000000       1964.71118      -1.57234859    
  -54.3531990       2.57653904      -20.0000000       1964.71118      -1.57234859    
  -54.6465797       5.53822613      -20.0000000       3343.74585      -1.57205403    
  -54.5736809       4.04919481      -20.0000000       3343.74585      -1.57205403    
  -55.8850899       4.68635893      -20.0000000       3343.74585      -1.57205403    
  -55.8850899       4.68635893      -20.0000000       3343.74585      -1.57205403    
  -44.2670212      -4.68766403      -20.0000000       4415.96387       1.56992424    
  -42.7620697      -4.68767691      -20.0000000       4415.96387       1.56992424    
  -42.7680206      -6.25000000      -20.0000000       4415.96387       1.56992424    
  -44.2742119      -6.25000000      -20.0000000       4415.96387       1.56992424    
  -44.2670212      -4.68766403      -20.0000000       2565.64893       1.56970930    
  -45.7679100      -4.68779421      -20.0000000       2565.64893       1.56970930    
  -45.7611885      -3.12411094      -20.0000000       2565.64893       1.56970930    
  -44.2611694      -3.12488103      -20.0000000       2565.64893       1.56970930    
  -45.7611885      -3.12411094      -20.0000000       1393.47742       1.56949425    
  -47.2550507      -3.12222195      -20.0000000       1393.47742       1.56949425    
  -47.2643318      -1.55986798      -20.0000000       1393.47742       1.56949425    
  -45.7603798      -1.56126106      -20.0000000       1393.47742       1.56949425    
  -50.2459984       1.47492099      -20.0000000       1201.01294      -1.57243788    
  -51.7500000       1.29565406      -20.0000000       1201.01294      -1.57243788    
  -51.6464691       2.90894699      -20.0000000       1201.01294      -1.57243788    
  -50.2011604       3.04989505      -20.0000000       1201.01294      -1.57243788    
  -54.6465797       5.53822613      -20.0000000       3409.33887      -1.57211995    
  -53.2416306       6.06926107      -20.0000000       3409.33887      -1.57211995    
  -53.0954399       4.36336088      -20.0000000       3409.33887      -1.57211995    
  -54.5736809       4.04919481      -20.0000000       3409.33887      -1.57211995    
  -47.2643318      -1.55986798      -20.0000000       440.111389       1.56930459    
  -48.7658615      -1.56390297      -20.0000000       440.111389       1.56930459    
  -48.7753716      -1.42937005E-02  -20.0000000       440.111389       1.56930459    
  -47.2657204       0.00000000      -20.0000000       440.111389       1.56930459    
  -48.7753716      -1.42937005E-02  -20.0000000       398.744965      -1.57242048    
  -50.2816200      -7.23225027E-02  -20.0000000       398.744965      -1.57242048    
  -50.2459984       1.47492099      -20.0000000       398.744965      -1.57242048    
  -48.7560692       1.53868604      -20.0000000       398.744965      -1.57242048    
  -51.6464691       2.90894699      -20.0000000       2109.92944      -1.57235134    
  -53.0367393       2.70281792      -20.0000000       2109.92944      -1.57235134    
  -53.0954399       4.36336088      -20.0000000       2109.92944      -1.57235134    
  -51.6648903       4.56408405      -20.0000000       2109.92944      -1.57235134    
  -41.2618294      -6.25000000      -20.0000000       4423.96875       1.57003820    
  -42.7680206      -6.25000000      -20.0000000       4423.96875       1.57003820    
  -42.7620697      -4.68767691      -20.0000000       4423.96875       1.57003820    
  -41.2566490      -4.68782711      -20.0000000       4423.96875       1.57003820    
  -44.2611694      -3.12488103      -20.0000000       2585.46094       1.56984401    
  -42.7563400      -3.12513494      -20.0000000       2585.46094       1.56984401    
  -42.7620697      -4.68767691      -20.0000000       2585.46094       1.56984401    
  -44.2670212      -4.68766403      -20.0000000       2585.46094       1.56984401    
  -44.2611694      -3.12488103      -20.0000000       1413.95300       1.56964517    
  -45.7611885      -3.12411094      -20.0000000       1413.95300       1.56964517    
  -45.7603798      -1.56126106      -20.0000000       1413.95300       1.56964517    
  -44.2565308      -1.56226599      -20.0000000       1413.95300       1.56964517    
  -45.7603798      -1.56126106      -20.0000000       446.663818       1.56945157    
  -47.2643318      -1.55986798      -20.0000000       446.663818       1.56945157    
  -47.2657204       0.00000000      -20.0000000       446.663818       1.56945157    
  -45.7582893       0.00000000      -20.0000000       446.663818       1.56945157    
  -47.2657204       0.00000000      -20.0000000       430.542908      -1.57230067    
  -48.7753716      -1.42937005E-02  -20.0000000       430.542908      -1.57230067    
  -48.7560692       1.53868604      -20.0000000       430.542908      -1.57230067    
  -47.2535896       1.55706894      -20.0000000       430.542908      -1.57230067    
  -48.7560692       1.53868604      -20.0000000       1302.31836      -1.57235217    
  -50.2459984       1.47492099      -20.0000000       1302.31836      -1.57235217    
  -50.2011604       3.04989505      -20.0000000       1302.31836      -1.57235217    
  -48.7281189       3.10503101      -20.0000000       1302.31836      -1.57235217    
  -50.2011604       3.04989505      -20.0000000       2273.62354      -1.57230532    
  -51.6464691       2.90894699      -20.0000000       2273.62354      -1.57230532    
  -51.6648903       4.56408405      -20.0000000       2273.62354      -1.57230532    
  -50.2067184       4.64797401      -20.0000000       2273.62354      -1.57230532    
  -51.6648903       4.56408405      -20.0000000       3750.96777      -1.57210922    
  -53.0954399       4.36336088      -20.0000000       3750.96777      -1.57210922    
  -53.2416306       6.06926107      -20.0000000       3750.96777      -1.57210922    
  -51.7500000       6.25000000      -20.0000000       3750.96777      -1.57210922    
  -39.7556496      -6.25000000      -20.0000000       4423.19287       1.57015276    
  -41.2618294      -6.25000000      -20.0000000       4423.19287       1.57015276    
  -41.2566490      -4.68782711      -20.0000000       4423.19287       1.57015276    
  -39.7507591      -4.68851089      -20.0000000       4423.19287       1.57015276    
  -41.2566490      -4.68782711      -20.0000000       2595.95361       1.56997633    
  -42.7620697      -4.68767691      -20.0000000       2595.95361       1.56997633    
  -42.7563400      -3.12513494      -20.0000000       2595.95361       1.56997633    
  -41.2511406      -3.12541890      -20.0000000       2595.95361       1.56997633    
  -44.2565308      -1.56226599      -20.0000000       1427.07922       1.56979787    
  -42.7509499      -1.56253600      -20.0000000       1427.07922       1.56979787    
  -42.7563400      -3.12513494      -20.0000000       1427.07922       1.56979787    
  -44.2611694      -3.12488103      -20.0000000       1427.07922       1.56979787    
  -44.2565308      -1.56226599      -20.0000000       453.692871       1.56961429    
  -45.7603798      -1.56126106      -20.0000000       453.692871       1.56961429    
  -45.7582893       0.00000000      -20.0000000       453.692871       1.56961429    
  -44.2515602       0.00000000      -20.0000000       453.692871       1.56961429    
  -45.7582893       0.00000000      -20.0000000       443.019989      -1.57215929    
  -47.2657204       0.00000000      -20.0000000       443.019989      -1.57215929    
  -47.2535896       1.55706894      -20.0000000       443.019989      -1.57215929    
  -45.7509003       1.56100297      -20.0000000       443.019989      -1.57215929    
  -47.2535896       1.55706894      -20.0000000       1357.32043      -1.57223988    
  -48.7560692       1.53868604      -20.0000000       1357.32043      -1.57223988    
  -48.7281189       3.10503101      -20.0000000       1357.32043      -1.57223988    
  -47.2370110       3.11982203      -20.0000000       1357.32043      -1.57223988    
  -48.7281189       3.10503101      -20.0000000       2398.29614      -1.57222939    
  -50.2011604       3.04989505      -20.0000000       2398.29614      -1.57222939    
  -50.2067184       4.64797401      -20.0000000       2398.29614      -1.57222939    
  -48.7241211       4.67746210      -20.0000000       2398.29614      -1.57222939    
  -50.2067184       4.64797401      -20.0000000       3994.51978      -1.57207179    
  -51.6648903       4.56408405      -20.0000000       3994.51978      -1.57207179    
  -51.7500000       6.25000000      -20.0000000       3994.51978      -1.57207179    
  -50.2455711       6.25000000      -20.0000000       3994.51978      -1.57207179    
  -38.2494698      -6.25000000      -20.0000000       4418.04004       1.57025969    
  -39.7556496      -6.25000000      -20.0000000       4418.04004       1.57025969    
  -39.7507591      -4.68851089      -20.0000000       4418.04004       1.57025969    
  -38.2446404      -4.68936491      -20.0000000       4418.04004       1.57025969    
  -39.7507591      -4.68851089      -20.0000000       2600.80005       1.57010078    
  -41.2566490      -4.68782711      -20.0000000       2600.80005       1.57010078    
  -41.2511406      -3.12541890      -20.0000000       2600.80005       1.57010078    
  -39.7453995      -3.12673903      -20.0000000       2600.80005       1.57010078    
  -41.2511406      -3.12541890      -20.0000000       1434.99182       1.56994331    
  -42.7563400      -3.12513494      -20.0000000       1434.99182       1.56994331    
  -42.7509499      -1.56253600      -20.0000000       1434.99182       1.56994331    
  -41.2455711      -1.56282198      -20.0000000       1434.99182       1.56994331    
  -44.2515602       0.00000000      -20.0000000       458.361450       1.56977665    
  -42.7457504       0.00000000      -20.0000000       458.361450       1.56977665    
  -42.7509499      -1.56253600      -20.0000000       458.361450       1.56977665    
  -44.2565308      -1.56226599      -20.0000000       458.361450       1.56977665    
  -44.2515602       0.00000000      -20.0000000       449.530365      -1.57199931    
  -45.7582893       0.00000000      -20.0000000       449.530365      -1.57199931    
  -45.7509003       1.56100297      -20.0000000       449.530365      -1.57199931    
  -44.2452011       1.56199801      -20.0000000       449.530365      -1.57199931    
  -45.7509003       1.56100297      -20.0000000       1388.98999      -1.57210457    
  -47.2535896       1.55706894      -20.0000000       1388.98999      -1.57210457    
  -47.2370110       3.11982203      -20.0000000       1388.98999      -1.57210457    
  -45.7402802       3.12332392      -20.0000000       1388.98999      -1.57210457    
  -47.2370110       3.11982203      -20.0000000       2478.26172      -1.57213187    
  -48.7281189       3.10503101      -20.0000000       2478.26172      -1.57213187    
  -48.7241211       4.67746210      -20.0000000       2478.26172      -1.57213187    
  -47.2300911       4.68496799      -20.0000000       2478.26172      -1.57213187    
  -48.7241211       4.67746210      -20.0000000       4161.76855      -1.57201767    
  -50.2067184       4.64797401      -20.0000000       4161.76855      -1.57201767    
  -50.2455711       6.25000000      -20.0000000       4161.76855      -1.57201767    
  -48.7411499       6.25000000      -20.0000000       4161.76855      -1.57201767    
  -36.7432899      -6.25000000      -20.0000000       4410.08789       1.57035267    
  -38.2494698      -6.25000000      -20.0000000       4410.08789       1.57035267    
  -38.2446404      -4.68936491      -20.0000000       4410.08789       1.57035267    
  -36.7384796      -4.68897390      -20.0000000       4410.08789       1.57035267    
  -38.2446404      -4.68936491      -20.0000000       2602.59033       1.57021213    
  -39.7507591      -4.68851089      -20.0000000       2602.59033       1.57021213    
  -39.7453995      -3.12673903      -20.0000000       2602.59033       1.57021213    
  -38.2396507      -3.12933803      -20.0000000       2602.59033       1.57021213    
  -39.7453995      -3.12673903      -20.0000000       1439.30530       1.57007527    
  -41.2511406      -3.12541890      -20.0000000       1439.30530       1.57007527    
  -41.2455711      -1.56282198      -20.0000000       1439.30530       1.57007527    
  -39.7399902      -1.56351995      -20.0000000       1439.30530       1.57007527    
  -41.2455711      -1.56282198      -20.0000000       461.217590       1.56992805    
  -42.7509499      -1.56253600      -20.0000000       461.217590       1.56992805    
  -42.7457504       0.00000000      -20.0000000       461.217590       1.56992805    
  -41.2401695       0.00000000      -20.0000000       461.217590       1.56992805    
  -44.2452011       1.56199801      -20.0000000       452.856506      -1.57183814    
  -42.7402611       1.56238496      -20.0000000       452.856506      -1.57183814    
  -42.7457504       0.00000000      -20.0000000       452.856506      -1.57183814    
  -44.2515602       0.00000000      -20.0000000       452.856506      -1.57183814    
  -44.2452011       1.56199801      -20.0000000       1408.48816      -1.57195413    
  -45.7509003       1.56100297      -20.0000000       1408.48816      -1.57195413    
  -45.7402802       3.12332392      -20.0000000       1408.48816      -1.57195413    
  -44.2380295       3.12447906      -20.0000000       1408.48816      -1.57195413    
  -45.7402802       3.12332392      -20.0000000       2528.42480      -1.57201564    
  -47.2370110       3.11982203      -20.0000000       2528.42480      -1.57201564    
  -47.2300911       4.68496799      -20.0000000       2528.42480      -1.57201564    
  -45.7329903       4.68700409      -20.0000000       2528.42480      -1.57201564    
  -47.2300911       4.68496799      -20.0000000       4275.62695      -1.57195067    
  -48.7241211       4.67746210      -20.0000000       4275.62695      -1.57195067    
  -48.7411499       6.25000000      -20.0000000       4275.62695      -1.57195067    
  -47.2367287       6.25000000      -20.0000000       4275.62695      -1.57195067    
  -35.2371101      -6.25000000      -20.0000000       4401.35205       1.57042766    
  -36.7432899      -6.25000000      -20.0000000       4401.35205       1.57042766    
  -36.7384796      -4.68897390      -20.0000000       4401.35205       1.57042766    
  -35.2325211      -4.68835878      -20.0000000       4401.35205       1.57042766    
  -36.7384796      -4.68897390      -20.0000000       2600.94678       1.57030714    
  -38.2446404      -4.68936491      -20.0000000       2600.94678       1.57030714    
  -38.2396507      -3.12933803      -20.0000000       2600.94678       1.57030714    
  -36.7339096      -3.12783909      -20.0000000       2600.94678       1.57030714    
  -38.2396507      -3.12933803      -20.0000000       1441.80994       1.57019043    
  -39.7453995      -3.12673903      -20.0000000       1441.80994       1.57019043    
  -39.7399902      -1.56351995      -20.0000000       1441.80994       1.57019043    
  -38.2346497      -1.56438303      -20.0000000       1441.80994       1.57019043    
  -39.7399902      -1.56351995      -20.0000000       463.066193       1.57006538    
  -41.2455711      -1.56282198      -20.0000000       463.066193       1.57006538    
  -41.2401695       0.00000000      -20.0000000       463.066193       1.57006538    