 VARIABLES="X" "Y" "Z" "abs(p) (Pa)" "angle(p) (rad)"
ZONE N=   3650,E =    3624, F=FEPOINT, ET=QUADRILATERAL
  -56.5164909      -2.47323704      -20.0000000       9659.36914       1.57078028    
  -55.4176407      -3.26747894      -20.0000000       9659.36914       1.57078028    
  -55.9264717      -4.64953518      -20.0000000       9659.36914       1.57078028    
  -56.9148483      -3.51935697      -20.0000000       9659.36914       1.57078028    
  -56.9148483      -3.51935697      -20.0000000       8705.27441       1.57077920    
  -57.6058807      -2.18402195      -20.0000000       8705.27441       1.57077920    
  -56.5164909      -2.47323704      -20.0000000       8705.27441       1.57077920    
  -56.5164909      -2.47323704      -20.0000000       8705.27441       1.57077920    
  -54.6953812      -5.51239681      -20.0000000       10233.1943       1.57078052    
  -55.9264717      -4.64953518      -20.0000000       10233.1943       1.57078052    
  -55.4176407      -3.26747894      -20.0000000       10233.1943       1.57078052    
  -54.2450790      -3.94889998      -20.0000000       10233.1943       1.57078052    
  -54.2450790      -3.94889998      -20.0000000       10664.8525       1.57078099    
  -52.9834785      -4.46340179      -20.0000000       10664.8525       1.57078099    
  -53.2955093      -6.05576801      -20.0000000       10664.8525       1.57078099    
  -54.6953812      -5.51239681      -20.0000000       10664.8525       1.57078099    
  -56.5223999      -1.11500299      -20.0000000       9519.71289       1.57078230    
  -56.5164909      -2.47323704      -20.0000000       9519.71289       1.57078230    
  -57.6058807      -2.18402195      -20.0000000       9519.71289       1.57078230    
  -57.9577713     -0.724482894      -20.0000000       9519.71289       1.57078230    
  -56.5164909      -2.47323704      -20.0000000       11702.7490       1.57078481    
  -56.5223999      -1.11500299      -20.0000000       11702.7490       1.57078481    
  -55.1657600      -1.76926601      -20.0000000       11702.7490       1.57078481    
  -55.4176407      -3.26747894      -20.0000000       11702.7490       1.57078481    
  -54.2450790      -3.94889998      -20.0000000       12804.4688       1.57078552    
  -55.4176407      -3.26747894      -20.0000000       12804.4688       1.57078552    
  -55.1657600      -1.76926601      -20.0000000       12804.4688       1.57078552    
  -53.8819199      -2.32836604      -20.0000000       12804.4688       1.57078552    
  -52.9834785      -4.46340179      -20.0000000       11127.2998       1.57078195    
  -51.6155815      -4.69134283      -20.0000000       11127.2998       1.57078195    
  -51.8049088      -6.24783087      -20.0000000       11127.2998       1.57078195    
  -53.2955093      -6.05576801      -20.0000000       11127.2998       1.57078195    
  -56.3964119      0.254809886      -20.0000000       9888.47754       1.57078362    
  -56.5223999      -1.11500299      -20.0000000       9888.47754       1.57078362    
  -57.9577713     -0.724482894      -20.0000000       9888.47754       1.57078362    
  -57.9511719      0.779103875      -20.0000000       9888.47754       1.57078362    
  -53.8819199      -2.32836604      -20.0000000       13446.5498       1.57078588    
  -52.7235603      -2.92538095      -20.0000000       13446.5498       1.57078588    
  -52.9834785      -4.46340179      -20.0000000       13446.5498       1.57078588    
  -54.2450790      -3.94889998      -20.0000000       13446.5498       1.57078588    
  -56.5223999      -1.11500299      -20.0000000       12567.7334       1.57078612    
  -56.3964119      0.254809886      -20.0000000       12567.7334       1.57078612    
  -54.8835487     -0.325594515      -20.0000000       12567.7334       1.57078612    
  -55.1657600      -1.76926601      -20.0000000       12567.7334       1.57078612    
  -50.2990494      -6.25000000      -20.0000000       11701.0918       1.57078314    
  -51.8049088      -6.24783087      -20.0000000       11701.0918       1.57078314    
  -51.6155815      -4.69134283      -20.0000000       11701.0918       1.57078314    
  -50.1911316      -4.70199823      -20.0000000       11701.0918       1.57078314    
  -53.8819199      -2.32836604      -20.0000000       14125.4902       1.57078719    
  -55.1657600      -1.76926601      -20.0000000       14125.4902       1.57078719    
  -54.8835487     -0.325594515      -20.0000000       14125.4902       1.57078719    
  -53.3087082     -0.726661325      -20.0000000       14125.4902       1.57078719    
  -52.7235603      -2.92538095      -20.0000000       13959.5635       1.57078624    
  -51.4683685      -3.18431592      -20.0000000       13959.5635       1.57078624    
  -51.6155815      -4.69134283      -20.0000000       13959.5635       1.57078624    
  -52.9834785      -4.46340179      -20.0000000       13959.5635       1.57078624    
  -56.1067696       1.60355306      -20.0000000       10031.2354       1.57078338    
  -56.3964119      0.254809886      -20.0000000       10031.2354       1.57078338    
  -57.9511719      0.779103875      -20.0000000       10031.2354       1.57078338    
  -57.5863686       2.23558092      -20.0000000       10031.2354       1.57078338    
  -56.3964119      0.254809886      -20.0000000       12886.6836       1.57078636    
  -56.1067696       1.60355306      -20.0000000       12886.6836       1.57078636    
  -54.6488190       1.11988902      -20.0000000       12886.6836       1.57078636    
  -54.8835487     -0.325594515      -20.0000000       12886.6836       1.57078636    
  -51.8859215      -1.67511594      -20.0000000       15038.3965       1.57078767    
  -52.7235603      -2.92538095      -20.0000000       15038.3965       1.57078767    
  -53.8819199      -2.32836604      -20.0000000       15038.3965       1.57078767    
  -53.3087082     -0.726661325      -20.0000000       15038.3965       1.57078767    
  -48.7928200      -6.25000000      -20.0000000       12241.4844       1.57078385    
  -50.2990494      -6.25000000      -20.0000000       12241.4844       1.57078385    
  -50.1911316      -4.70199823      -20.0000000       12241.4844       1.57078385    
  -48.7387619      -4.69004917      -20.0000000       12241.4844       1.57078385    
  -50.1911316      -4.70199823      -20.0000000       14579.5586       1.57078683    
  -51.6155815      -4.69134283      -20.0000000       14579.5586       1.57078683    
  -51.4683685      -3.18431592      -20.0000000       14579.5586       1.57078683    
  -50.1564102      -3.12996602      -20.0000000       14579.5586       1.57078683    
  -54.6488190       1.11988902      -20.0000000       14616.1914       1.57078767    
  -53.2043991       1.01675200      -20.0000000       14616.1914       1.57078767    
  -53.3087082     -0.726661325      -20.0000000       14616.1914       1.57078767    
  -54.8835487     -0.325594515      -20.0000000       14616.1914       1.57078767    
  -51.4683685      -3.18431592      -20.0000000       15239.0225       1.57078767    
  -52.7235603      -2.92538095      -20.0000000       15239.0225       1.57078767    
  -51.8859215      -1.67511594      -20.0000000       15239.0225       1.57078767    
  -51.8859215      -1.67511594      -20.0000000       15239.0225       1.57078767    
  -55.6295395       2.91055298      -20.0000000       9991.15723       1.57078218    
  -56.1067696       1.60355306      -20.0000000       9991.15723       1.57078218    
  -57.5863686       2.23558092      -20.0000000       9991.15723       1.57078218    
  -56.8836594       3.56473303      -20.0000000       9991.15723       1.57078218    
  -47.2866096      -6.25000000      -20.0000000       12646.8350       1.57078433    
  -48.7928200      -6.25000000      -20.0000000       12646.8350       1.57078433    
  -48.7387619      -4.69004917      -20.0000000       12646.8350       1.57078433    
  -47.2626686      -4.68801212      -20.0000000       12646.8350       1.57078433    
  -48.7387619      -4.69004917      -20.0000000       15194.0723       1.57078731    
  -50.1911316      -4.70199823      -20.0000000       15194.0723       1.57078731    
  -50.1564102      -3.12996602      -20.0000000       15194.0723       1.57078731    
  -48.7254105      -3.12169194      -20.0000000       15194.0723       1.57078731    
  -50.1564102      -3.12996602      -20.0000000       16001.4746       1.57078815    
  -51.4683685      -3.18431592      -20.0000000       16001.4746       1.57078815    
  -51.8859215      -1.67511594      -20.0000000       16001.4746       1.57078815    
  -50.2854195      -1.59545600      -20.0000000       16001.4746       1.57078815    
  -54.6488190       1.11988902      -20.0000000       12752.0000       1.57078588    
  -56.1067696       1.60355306      -20.0000000       12752.0000       1.57078588    
  -55.6295395       2.91055298      -20.0000000       12752.0000       1.57078588    
  -54.3531990       2.57653904      -20.0000000       12752.0000       1.57078588    
  -51.7686501     -0.191007897      -20.0000000       15850.5469       1.57078838    
  -51.8859215      -1.67511594      -20.0000000       15850.5469       1.57078838    
  -53.3087082     -0.726661325      -20.0000000       15850.5469       1.57078838    
  -53.3087082     -0.726661325      -20.0000000       15850.5469       1.57078838    
  -51.7686501     -0.191007897      -20.0000000       15790.2217       1.57078826    
  -53.3087082     -0.726661325      -20.0000000       15790.2217       1.57078826    
  -53.2043991       1.01675200      -20.0000000       15790.2217       1.57078826    
  -51.7500000       1.29565406      -20.0000000       15790.2217       1.57078826    
  -53.0367393       2.70281792      -20.0000000       14349.4727       1.57078719    
  -53.2043991       1.01675200      -20.0000000       14349.4727       1.57078719    
  -54.6488190       1.11988902      -20.0000000       14349.4727       1.57078719    
  -54.3531990       2.57653904      -20.0000000       14349.4727       1.57078719    
  -45.7804108      -6.25000000      -20.0000000       12957.1357       1.57078481    
  -47.2866096      -6.25000000      -20.0000000       12957.1357       1.57078481    
  -47.2626686      -4.68801212      -20.0000000       12957.1357       1.57078481    
  -45.7679100      -4.68779421      -20.0000000       12957.1357       1.57078481    
  -47.2626686      -4.68801212      -20.0000000       15665.0107       1.57078767    
  -48.7387619      -4.69004917      -20.0000000       15665.0107       1.57078767    
  -48.7254105      -3.12169194      -20.0000000       15665.0107       1.57078767    
  -47.2550507      -3.12222195      -20.0000000       15665.0107       1.57078767    
  -54.5736809       4.04919481      -20.0000000       10025.4160       1.57078075    
  -55.6295395       2.91055298      -20.0000000       10025.4160       1.57078075    
  -56.8836594       3.56473303      -20.0000000       10025.4160       1.57078075    
  -55.8850899       4.68635893      -20.0000000       10025.4160       1.57078075    
  -48.7254105      -3.12169194      -20.0000000       16676.5625       1.57078862    
  -50.1564102      -3.12996602      -20.0000000       16676.5625       1.57078862    
  -50.2854195      -1.59545600      -20.0000000       16676.5625       1.57078862    
  -48.7658615      -1.56390297      -20.0000000       16676.5625       1.57078862    
  -50.2854195      -1.59545600      -20.0000000       16597.8828       1.57078874    
  -51.8859215      -1.67511594      -20.0000000       16597.8828       1.57078874    
  -51.7686501     -0.191007897      -20.0000000       16597.8828       1.57078874    
  -50.2816200      -7.23225027E-02  -20.0000000       16597.8828       1.57078874    
  -55.6295395       2.91055298      -20.0000000       12243.5830       1.57078469    
  -54.5736809       4.04919481      -20.0000000       12243.5830       1.57078469    
  -54.3531990       2.57653904      -20.0000000       12243.5830       1.57078469    
  -54.3531990       2.57653904      -20.0000000       12243.5830       1.57078469    
  -51.6464691       2.90894699      -20.0000000       15367.8252       1.57078791    
  -51.7500000       1.29565406      -20.0000000       15367.8252       1.57078791    
  -53.2043991       1.01675200      -20.0000000       15367.8252       1.57078791    
  -53.0367393       2.70281792      -20.0000000       15367.8252       1.57078791    
  -44.2742119      -6.25000000      -20.0000000       13205.7637       1.57078552    
  -45.7804108      -6.25000000      -20.0000000       13205.7637       1.57078552    
  -45.7679100      -4.68779421      -20.0000000       13205.7637       1.57078552    
  -44.2670212      -4.68766403      -20.0000000       13205.7637       1.57078552    
  -45.7679100      -4.68779421      -20.0000000       16035.5527       1.57078791    
  -47.2626686      -4.68801212      -20.0000000       16035.5527       1.57078791    
  -47.2550507      -3.12222195      -20.0000000       16035.5527       1.57078791    
  -45.7611885      -3.12411094      -20.0000000       16035.5527       1.57078791    
  -51.7500000       1.29565406      -20.0000000       16674.1660       1.57078874    
  -50.2459984       1.47492099      -20.0000000       16674.1660       1.57078874    
  -50.2816200      -7.23225027E-02  -20.0000000       16674.1660       1.57078874    
  -51.7686501     -0.191007897      -20.0000000       16674.1660       1.57078874    
  -47.2550507      -3.12222195      -20.0000000       17193.9961       1.57078886    
  -48.7254105      -3.12169194      -20.0000000       17193.9961       1.57078886    
  -48.7658615      -1.56390297      -20.0000000       17193.9961       1.57078886    
  -47.2643318      -1.55986798      -20.0000000       17193.9961       1.57078886    
  -48.7658615      -1.56390297      -20.0000000       17324.8223       1.57078910    
  -50.2854195      -1.59545600      -20.0000000       17324.8223       1.57078910    
  -50.2816200      -7.23225027E-02  -20.0000000       17324.8223       1.57078910    
  -48.7753716      -1.42937005E-02  -20.0000000       17324.8223       1.57078910    
  -54.5736809       4.04919481      -20.0000000       13162.5791       1.57078564    
  -53.0954399       4.36336088      -20.0000000       13162.5791       1.57078564    
  -53.0367393       2.70281792      -20.0000000       13162.5791       1.57078564    
  -54.3531990       2.57653904      -20.0000000       13162.5791       1.57078564    
  -54.6465797       5.53822613      -20.0000000       9439.33594       1.57077825    
  -54.5736809       4.04919481      -20.0000000       9439.33594       1.57077825    
  -55.8850899       4.68635893      -20.0000000       9439.33594       1.57077825    
  -55.8850899       4.68635893      -20.0000000       9439.33594       1.57077825    
  -44.2670212      -4.68766403      -20.0000000       13410.4248       1.57078660    
  -42.7620697      -4.68767691      -20.0000000       13410.4248       1.57078660    
  -42.7680206      -6.25000000      -20.0000000       13410.4248       1.57078660    
  -44.2742119      -6.25000000      -20.0000000       13410.4248       1.57078660    
  -44.2670212      -4.68766403      -20.0000000       16335.7627       1.57078838    
  -45.7679100      -4.68779421      -20.0000000       16335.7627       1.57078838    
  -45.7611885      -3.12411094      -20.0000000       16335.7627       1.57078838    
  -44.2611694      -3.12488103      -20.0000000       16335.7627       1.57078838    
  -45.7611885      -3.12411094      -20.0000000       17602.5098       1.57078910    
  -47.2550507      -3.12222195      -20.0000000       17602.5098       1.57078910    
  -47.2643318      -1.55986798      -20.0000000       17602.5098       1.57078910    
  -45.7603798      -1.56126106      -20.0000000       17602.5098       1.57078910    
  -50.2459984       1.47492099      -20.0000000       16114.4658       1.57078826    
  -51.7500000       1.29565406      -20.0000000       16114.4658       1.57078826    
  -51.6464691       2.90894699      -20.0000000       16114.4658       1.57078826    
  -50.2011604       3.04989505      -20.0000000       16114.4658       1.57078826    
  -54.6465797       5.53822613      -20.0000000       10608.7959       1.57078099    
  -53.2416306       6.06926107      -20.0000000       10608.7959       1.57078099    
  -53.0954399       4.36336088      -20.0000000       10608.7959       1.57078099    
  -54.5736809       4.04919481      -20.0000000       10608.7959       1.57078099    
  -47.2643318      -1.55986798      -20.0000000       17875.9258       1.57078934    
  -48.7658615      -1.56390297      -20.0000000       17875.9258       1.57078934    
  -48.7753716      -1.42937005E-02  -20.0000000       17875.9258       1.57078934    
  -47.2657204       0.00000000      -20.0000000       17875.9258       1.57078934    
  -48.7753716      -1.42937005E-02  -20.0000000       17346.0195       1.57078910    
  -50.2816200      -7.23225027E-02  -20.0000000       17346.0195       1.57078910    
  -50.2459984       1.47492099      -20.0000000       17346.0195       1.57078910    
  -48.7560692       1.53868604      -20.0000000       17346.0195       1.57078910    
  -51.6464691       2.90894699      -20.0000000       14067.2100       1.57078648    
  -53.0367393       2.70281792      -20.0000000       14067.2100       1.57078648    
  -53.0954399       4.36336088      -20.0000000       14067.2100       1.57078648    
  -51.6648903       4.56408405      -20.0000000       14067.2100       1.57078648    
  -41.2618294      -6.25000000      -20.0000000       13582.2324       1.57078779    
  -42.7680206      -6.25000000      -20.0000000       13582.2324       1.57078779    
  -42.7620697      -4.68767691      -20.0000000       13582.2324       1.57078779    
  -41.2566490      -4.68782711      -20.0000000       13582.2324       1.57078779    
  -44.2611694      -3.12488103      -20.0000000       16584.1074       1.57078886    
  -42.7563400      -3.12513494      -20.0000000       16584.1074       1.57078886    
  -42.7620697      -4.68767691      -20.0000000       16584.1074       1.57078886    
  -44.2670212      -4.68766403      -20.0000000       16584.1074       1.57078886    
  -44.2611694      -3.12488103      -20.0000000       17933.7422       1.57078934    
  -45.7611885      -3.12411094      -20.0000000       17933.7422       1.57078934    
  -45.7603798      -1.56126106      -20.0000000       17933.7422       1.57078934    
  -44.2565308      -1.56226599      -20.0000000       17933.7422       1.57078934    
  -45.7603798      -1.56126106      -20.0000000       18307.7012       1.57078946    
  -47.2643318      -1.55986798      -20.0000000       18307.7012       1.57078946    
  -47.2657204       0.00000000      -20.0000000       18307.7012       1.57078946    
  -45.7582893       0.00000000      -20.0000000       18307.7012       1.57078946    
  -47.2657204       0.00000000      -20.0000000       17880.3711       1.57078934    
  -48.7753716      -1.42937005E-02  -20.0000000       17880.3711       1.57078934    
  -48.7560692       1.53868604      -20.0000000       17880.3711       1.57078934    
  -47.2535896       1.55706894      -20.0000000       17880.3711       1.57078934    
  -48.7560692       1.53868604      -20.0000000       16709.7344       1.57078862    
  -50.2459984       1.47492099      -20.0000000       16709.7344       1.57078862    
  -50.2011604       3.04989505      -20.0000000       16709.7344       1.57078862    
  -48.7281189       3.10503101      -20.0000000       16709.7344       1.57078862    
  -50.2011604       3.04989505      -20.0000000       14713.2959       1.57078695    
  -51.6464691       2.90894699      -20.0000000       14713.2959       1.57078695    
  -51.6648903       4.56408405      -20.0000000       14713.2959       1.57078695    
  -50.2067184       4.64797401      -20.0000000       14713.2959       1.57078695    
  -51.6648903       4.56408405      -20.0000000       11251.0459       1.57078230    
  -53.0954399       4.36336088      -20.0000000       11251.0459       1.57078230    
  -53.2416306       6.06926107      -20.0000000       11251.0459       1.57078230    
  -51.7500000       6.25000000      -20.0000000       11251.0459       1.57078230    
  -39.7556496      -6.25000000      -20.0000000       13731.2344       1.57078874    
  -41.2618294      -6.25000000      -20.0000000       13731.2344       1.57078874    
  -41.2566490      -4.68782711      -20.0000000       13731.2344       1.57078874    
  -39.7507591      -4.68851089      -20.0000000       13731.2344       1.57078874    
  -41.2566490      -4.68782711      -20.0000000       16793.0020       1.57078934    
  -42.7620697      -4.68767691      -20.0000000       16793.0020       1.57078934    
  -42.7563400      -3.12513494      -20.0000000       16793.0020       1.57078934    
  -41.2511406      -3.12541890      -20.0000000       16793.0020       1.57078934    
  -44.2565308      -1.56226599      -20.0000000       18206.3242       1.57078958    
  -42.7509499      -1.56253600      -20.0000000       18206.3242       1.57078958    
  -42.7563400      -3.12513494      -20.0000000       18206.3242       1.57078958    
  -44.2611694      -3.12488103      -20.0000000       18206.3242       1.57078958    
  -44.2565308      -1.56226599      -20.0000000       18655.2227       1.57078969    
  -45.7603798      -1.56126106      -20.0000000       18655.2227       1.57078969    
  -45.7582893       0.00000000      -20.0000000       18655.2227       1.57078969    
  -44.2515602       0.00000000      -20.0000000       18655.2227       1.57078969    
  -45.7582893       0.00000000      -20.0000000       18308.7344       1.57078946    
  -47.2657204       0.00000000      -20.0000000       18308.7344       1.57078946    
  -47.2535896       1.55706894      -20.0000000       18308.7344       1.57078946    
  -45.7509003       1.56100297      -20.0000000       18308.7344       1.57078946    
  -47.2535896       1.55706894      -20.0000000       17200.7988       1.57078886    
  -48.7560692       1.53868604      -20.0000000       17200.7988       1.57078886    
  -48.7281189       3.10503101      -20.0000000       17200.7988       1.57078886    
  -47.2370110       3.11982203      -20.0000000       17200.7988       1.57078886    
  -48.7281189       3.10503101      -20.0000000       15237.1973       1.57078743    
  -50.2011604       3.04989505      -20.0000000       15237.1973       1.57078743    
  -50.2067184       4.64797401      -20.0000000       15237.1973       1.57078743    
  -48.7241211       4.67746210      -20.0000000       15237.1973       1.57078743    
  -50.2067184       4.64797401      -20.0000000       11815.2656       1.57078338    
  -51.6648903       4.56408405      -20.0000000       11815.2656       1.57078338    
  -51.7500000       6.25000000      -20.0000000       11815.2656       1.57078338    
  -50.2455711       6.25000000      -20.0000000       11815.2656       1.57078338    
  -38.2494698      -6.25000000      -20.0000000       13863.0889       1.57078898    
  -39.7556496      -6.25000000      -20.0000000       13863.0889       1.57078898    
  -39.7507591      -4.68851089      -20.0000000       13863.0889       1.57078898    
  -38.2446404      -4.68936491      -20.0000000       13863.0889       1.57078898    
  -39.7507591      -4.68851089      -20.0000000       16971.6992       1.57078969    
  -41.2566490      -4.68782711      -20.0000000       16971.6992       1.57078969    
  -41.2511406      -3.12541890      -20.0000000       16971.6992       1.57078969    
  -39.7453995      -3.12673903      -20.0000000       16971.6992       1.57078969    
  -41.2511406      -3.12541890      -20.0000000       18436.1934       1.57078993    
  -42.7563400      -3.12513494      -20.0000000       18436.1934       1.57078993    
  -42.7509499      -1.56253600      -20.0000000       18436.1934       1.57078993    
  -41.2455711      -1.56282198      -20.0000000       18436.1934       1.57078993    
  -44.2515602       0.00000000      -20.0000000       18940.9746       1.57078993    
  -42.7457504       0.00000000      -20.0000000       18940.9746       1.57078993    
  -42.7509499      -1.56253600      -20.0000000       18940.9746       1.57078993    
  -44.2565308      -1.56226599      -20.0000000       18940.9746       1.57078993    
  -44.2515602       0.00000000      -20.0000000       18656.1133       1.57078969    
  -45.7582893       0.00000000      -20.0000000       18656.1133       1.57078969    
  -45.7509003       1.56100297      -20.0000000       18656.1133       1.57078969    
  -44.2452011       1.56199801      -20.0000000       18656.1133       1.57078969    
  -45.7509003       1.56100297      -20.0000000       17603.8691       1.57078910    
  -47.2535896       1.55706894      -20.0000000       17603.8691       1.57078910    
  -47.2370110       3.11982203      -20.0000000       17603.8691       1.57078910    
  -45.7402802       3.12332392      -20.0000000       17603.8691       1.57078910    
  -47.2370110       3.11982203      -20.0000000       15676.6221       1.57078767    
  -48.7281189       3.10503101      -20.0000000       15676.6221       1.57078767    
  -48.7241211       4.67746210      -20.0000000       15676.6221       1.57078767    
  -47.2300911       4.68496799      -20.0000000       15676.6221       1.57078767    
  -48.7241211       4.67746210      -20.0000000       12290.4453       1.57078409    
  -50.2067184       4.64797401      -20.0000000       12290.4453       1.57078409    
  -50.2455711       6.25000000      -20.0000000       12290.4453       1.57078409    
  -48.7411499       6.25000000      -20.0000000       12290.4453       1.57078409    
  -36.7432899      -6.25000000      -20.0000000       13982.7324       1.57078862    
  -38.2494698      -6.25000000      -20.0000000       13982.7324       1.57078862    
  -38.2446404      -4.68936491      -20.0000000       13982.7324       1.57078862    
  -36.7384796      -4.68897390      -20.0000000       13982.7324       1.57078862    
  -38.2446404      -4.68936491      -20.0000000       17128.5117       1.57078993    
  -39.7507591      -4.68851089      -20.0000000       17128.5117       1.57078993    
  -39.7453995      -3.12673903      -20.0000000       17128.5117       1.57078993    
  -38.2396507      -3.12933803      -20.0000000       17128.5117       1.57078993    
  -39.7453995      -3.12673903      -20.0000000       18632.4629       1.57079017    
  -41.2511406      -3.12541890      -20.0000000       18632.4629       1.57079017    
  -41.2455711      -1.56282198      -20.0000000       18632.4629       1.57079017    
  -39.7399902      -1.56351995      -20.0000000       18632.4629       1.57079017    
  -41.2455711      -1.56282198      -20.0000000       19181.3984       1.57079017    
  -42.7509499      -1.56253600      -20.0000000       19181.3984       1.57079017    
  -42.7457504       0.00000000      -20.0000000       19181.3984       1.57079017    
  -41.2401695       0.00000000      -20.0000000       19181.3984       1.57079017    
  -44.2452011       1.56199801      -20.0000000       18941.1680       1.57078993    
  -42.7402611       1.56238496      -20.0000000       18941.1680       1.57078993    
  -42.7457504       0.00000000      -20.0000000       18941.1680       1.57078993    
  -44.2515602       0.00000000      -20.0000000       18941.1680       1.57078993    
  -44.2452011       1.56199801      -20.0000000       17933.8613       1.57078934    
  -45.7509003       1.56100297      -20.0000000       17933.8613       1.57078934    
  -45.7402802       3.12332392      -20.0000000       17933.8613       1.57078934    
  -44.2380295       3.12447906      -20.0000000       17933.8613       1.57078934    
  -45.7402802       3.12332392      -20.0000000       16040.5967       1.57078803    
  -47.2370110       3.11982203      -20.0000000       16040.5967       1.57078803    
  -47.2300911       4.68496799      -20.0000000       16040.5967       1.57078803    
  -45.7329903       4.68700409      -20.0000000       16040.5967       1.57078803    
  -47.2300911       4.68496799      -20.0000000       12663.1934       1.57078445    
  -48.7241211       4.67746210      -20.0000000       12663.1934       1.57078445    
  -48.7411499       6.25000000      -20.0000000       12663.1934       1.57078445    
  -47.2367287       6.25000000      -20.0000000       12663.1934       1.57078445    
  -35.2371101      -6.25000000      -20.0000000       14095.3066       1.57078767    
  -36.7432899      -6.25000000      -20.0000000       14095.3066       1.57078767    
  -36.7384796      -4.68897390      -20.0000000       14095.3066       1.57078767    
  -35.2325211      -4.68835878      -20.0000000       14095.3066       1.57078767    
  -36.7384796      -4.68897390      -20.0000000       17269.6562       1.57078981    
  -38.2446404      -4.68936491      -20.0000000       17269.6562       1.57078981    
  -38.2396507      -3.12933803      -20.0000000       17269.6562       1.57078981    
  -36.7339096      -3.12783909      -20.0000000       17269.6562       1.57078981    
  -38.2396507      -3.12933803      -20.0000000       18804.6016       1.57079041    
  -39.7453995      -3.12673903      -20.0000000       18804.6016       1.57079041    
  -39.7399902      -1.56351995      -20.0000000       18804.6016       1.57079041    
  -38.2346497      -1.56438303      -20.0000000       18804.6016       1.57079041    
  -39.7399902      -1.56351995      -20.0000000       19384.8203       1.57079041    
  -41.2455711      -1.56282198      -20.0000000       19384.8203       1.57079041    
  -41.2401695       0.00000000      -20.0000000       19384.8203       1.57079041    