 VARIABLES="X" "Y" "Z" "abs(p) (Pa)" "angle(p) (rad)"
ZONE N=   3650,E =    3624, F=FEPOINT, ET=QUADRILATERAL
  -56.5164909      -2.47323704      -20.0000000       5519.69531       1.57532668    
  -55.4176407      -3.26747894      -20.0000000       5519.69531       1.57532668    
  -55.9264717      -4.64953518      -20.0000000       5519.69531       1.57532668    
  -56.9148483      -3.51935697      -20.0000000       5519.69531       1.57532668    
  -56.9148483      -3.51935697      -20.0000000       4959.63525       1.57516503    
  -57.6058807      -2.18402195      -20.0000000       4959.63525       1.57516503    
  -56.5164909      -2.47323704      -20.0000000       4959.63525       1.57516503    
  -56.5164909      -2.47323704      -20.0000000       4959.63525       1.57516503    
  -54.6953812      -5.51239681      -20.0000000       5860.47900       1.57580841    
  -55.9264717      -4.64953518      -20.0000000       5860.47900       1.57580841    
  -55.4176407      -3.26747894      -20.0000000       5860.47900       1.57580841    
  -54.2450790      -3.94889998      -20.0000000       5860.47900       1.57580841    
  -54.2450790      -3.94889998      -20.0000000       6121.12305       1.57640100    
  -52.9834785      -4.46340179      -20.0000000       6121.12305       1.57640100    
  -53.2955093      -6.05576801      -20.0000000       6121.12305       1.57640100    
  -54.6953812      -5.51239681      -20.0000000       6121.12305       1.57640100    
  -56.5223999      -1.11500299      -20.0000000       5433.87158       1.57467937    
  -56.5164909      -2.47323704      -20.0000000       5433.87158       1.57467937    
  -57.6058807      -2.18402195      -20.0000000       5433.87158       1.57467937    
  -57.9577713     -0.724482894      -20.0000000       5433.87158       1.57467937    
  -56.5164909      -2.47323704      -20.0000000       6711.85791       1.57459784    
  -56.5223999      -1.11500299      -20.0000000       6711.85791       1.57459784    
  -55.1657600      -1.76926601      -20.0000000       6711.85791       1.57459784    
  -55.4176407      -3.26747894      -20.0000000       6711.85791       1.57459784    
  -54.2450790      -3.94889998      -20.0000000       7360.27490       1.57478929    
  -55.4176407      -3.26747894      -20.0000000       7360.27490       1.57478929    
  -55.1657600      -1.76926601      -20.0000000       7360.27490       1.57478929    
  -53.8819199      -2.32836604      -20.0000000       7360.27490       1.57478929    
  -52.9834785      -4.46340179      -20.0000000       6402.59521       1.57693017    
  -51.6155815      -4.69134283      -20.0000000       6402.59521       1.57693017    
  -51.8049088      -6.24783087      -20.0000000       6402.59521       1.57693017    
  -53.2955093      -6.05576801      -20.0000000       6402.59521       1.57693017    
  -56.3964119      0.254809886      -20.0000000       5648.57812       1.57448554    
  -56.5223999      -1.11500299      -20.0000000       5648.57812       1.57448554    
  -57.9577713     -0.724482894      -20.0000000       5648.57812       1.57448554    
  -57.9511719      0.779103875      -20.0000000       5648.57812       1.57448554    
  -53.8819199      -2.32836604      -20.0000000       7741.92041       1.57507718    
  -52.7235603      -2.92538095      -20.0000000       7741.92041       1.57507718    
  -52.9834785      -4.46340179      -20.0000000       7741.92041       1.57507718    
  -54.2450790      -3.94889998      -20.0000000       7741.92041       1.57507718    
  -56.5223999      -1.11500299      -20.0000000       7216.47656       1.57435930    
  -56.3964119      0.254809886      -20.0000000       7216.47656       1.57435930    
  -54.8835487     -0.325594515      -20.0000000       7216.47656       1.57435930    
  -55.1657600      -1.76926601      -20.0000000       7216.47656       1.57435930    
  -50.2990494      -6.25000000      -20.0000000       6750.98682       1.57724881    
  -51.8049088      -6.24783087      -20.0000000       6750.98682       1.57724881    
  -51.6155815      -4.69134283      -20.0000000       6750.98682       1.57724881    
  -50.1911316      -4.70199823      -20.0000000       6750.98682       1.57724881    
  -53.8819199      -2.32836604      -20.0000000       8131.39648       1.57445824    
  -55.1657600      -1.76926601      -20.0000000       8131.39648       1.57445824    
  -54.8835487     -0.325594515      -20.0000000       8131.39648       1.57445824    
  -53.3087082     -0.726661325      -20.0000000       8131.39648       1.57445824    
  -52.7235603      -2.92538095      -20.0000000       8050.14160       1.57537806    
  -51.4683685      -3.18431592      -20.0000000       8050.14160       1.57537806    
  -51.6155815      -4.69134283      -20.0000000       8050.14160       1.57537806    
  -52.9834785      -4.46340179      -20.0000000       8050.14160       1.57537806    
  -56.1067696       1.60355306      -20.0000000       5732.50781       1.57455051    
  -56.3964119      0.254809886      -20.0000000       5732.50781       1.57455051    
  -57.9511719      0.779103875      -20.0000000       5732.50781       1.57455051    
  -57.5863686       2.23558092      -20.0000000       5732.50781       1.57455051    
  -56.3964119      0.254809886      -20.0000000       7403.37012       1.57435405    
  -56.1067696       1.60355306      -20.0000000       7403.37012       1.57435405    
  -54.6488190       1.11988902      -20.0000000       7403.37012       1.57435405    
  -54.8835487     -0.325594515      -20.0000000       7403.37012       1.57435405    
  -51.8859215      -1.67511594      -20.0000000       8671.28906       1.57464576    
  -52.7235603      -2.92538095      -20.0000000       8671.28906       1.57464576    
  -53.8819199      -2.32836604      -20.0000000       8671.28906       1.57464576    
  -53.3087082     -0.726661325      -20.0000000       8671.28906       1.57464576    
  -48.7928200      -6.25000000      -20.0000000       7081.02979       1.57743537    
  -50.2990494      -6.25000000      -20.0000000       7081.02979       1.57743537    
  -50.1911316      -4.70199823      -20.0000000       7081.02979       1.57743537    
  -48.7387619      -4.69004917      -20.0000000       7081.02979       1.57743537    
  -50.1911316      -4.70199823      -20.0000000       8422.09277       1.57557786    
  -51.6155815      -4.69134283      -20.0000000       8422.09277       1.57557786    
  -51.4683685      -3.18431592      -20.0000000       8422.09277       1.57557786    
  -50.1564102      -3.12996602      -20.0000000       8422.09277       1.57557786    
  -54.6488190       1.11988902      -20.0000000       8418.78223       1.57440376    
  -53.2043991       1.01675200      -20.0000000       8418.78223       1.57440376    
  -53.3087082     -0.726661325      -20.0000000       8418.78223       1.57440376    
  -54.8835487     -0.325594515      -20.0000000       8418.78223       1.57440376    
  -51.4683685      -3.18431592      -20.0000000       8794.75586       1.57489431    
  -52.7235603      -2.92538095      -20.0000000       8794.75586       1.57489431    
  -51.8859215      -1.67511594      -20.0000000       8794.75586       1.57489431    
  -51.8859215      -1.67511594      -20.0000000       8794.75586       1.57489431    
  -55.6295395       2.91055298      -20.0000000       5711.16260       1.57486629    
  -56.1067696       1.60355306      -20.0000000       5711.16260       1.57486629    
  -57.5863686       2.23558092      -20.0000000       5711.16260       1.57486629    
  -56.8836594       3.56473303      -20.0000000       5711.16260       1.57486629    
  -47.2866096      -6.25000000      -20.0000000       7333.51318       1.57758677    
  -48.7928200      -6.25000000      -20.0000000       7333.51318       1.57758677    
  -48.7387619      -4.69004917      -20.0000000       7333.51318       1.57758677    
  -47.2626686      -4.68801212      -20.0000000       7333.51318       1.57758677    
  -48.7387619      -4.69004917      -20.0000000       8791.72754       1.57570994    
  -50.1911316      -4.70199823      -20.0000000       8791.72754       1.57570994    
  -50.1564102      -3.12996602      -20.0000000       8791.72754       1.57570994    
  -48.7254105      -3.12169194      -20.0000000       8791.72754       1.57570994    
  -50.1564102      -3.12996602      -20.0000000       9246.08594       1.57493699    
  -51.4683685      -3.18431592      -20.0000000       9246.08594       1.57493699    
  -51.8859215      -1.67511594      -20.0000000       9246.08594       1.57493699    
  -50.2854195      -1.59545600      -20.0000000       9246.08594       1.57493699    
  -54.6488190       1.11988902      -20.0000000       7326.73633       1.57455206    
  -56.1067696       1.60355306      -20.0000000       7326.73633       1.57455206    
  -55.6295395       2.91055298      -20.0000000       7326.73633       1.57455206    
  -54.3531990       2.57653904      -20.0000000       7326.73633       1.57455206    
  -51.7686501     -0.191007897      -20.0000000       9147.66406       1.57456946    
  -51.8859215      -1.67511594      -20.0000000       9147.66406       1.57456946    
  -53.3087082     -0.726661325      -20.0000000       9147.66406       1.57456946    
  -53.3087082     -0.726661325      -20.0000000       9147.66406       1.57456946    
  -51.7686501     -0.191007897      -20.0000000       9111.21680       1.57452083    
  -53.3087082     -0.726661325      -20.0000000       9111.21680       1.57452083    
  -53.2043991       1.01675200      -20.0000000       9111.21680       1.57452083    
  -51.7500000       1.29565406      -20.0000000       9111.21680       1.57452083    
  -53.0367393       2.70281792      -20.0000000       8264.95117       1.57457018    
  -53.2043991       1.01675200      -20.0000000       8264.95117       1.57457018    
  -54.6488190       1.11988902      -20.0000000       8264.95117       1.57457018    
  -54.3531990       2.57653904      -20.0000000       8264.95117       1.57457018    
  -45.7804108      -6.25000000      -20.0000000       7531.45703       1.57769561    
  -47.2866096      -6.25000000      -20.0000000       7531.45703       1.57769561    
  -47.2626686      -4.68801212      -20.0000000       7531.45703       1.57769561    
  -45.7679100      -4.68779421      -20.0000000       7531.45703       1.57769561    
  -47.2626686      -4.68801212      -20.0000000       9079.11230       1.57584739    
  -48.7387619      -4.69004917      -20.0000000       9079.11230       1.57584739    
  -48.7254105      -3.12169194      -20.0000000       9079.11230       1.57584739    
  -47.2550507      -3.12222195      -20.0000000       9079.11230       1.57584739    
  -54.5736809       4.04919481      -20.0000000       5735.55469       1.57542944    
  -55.6295395       2.91055298      -20.0000000       5735.55469       1.57542944    
  -56.8836594       3.56473303      -20.0000000       5735.55469       1.57542944    
  -55.8850899       4.68635893      -20.0000000       5735.55469       1.57542944    
  -48.7254105      -3.12169194      -20.0000000       9650.30273       1.57506895    
  -50.1564102      -3.12996602      -20.0000000       9650.30273       1.57506895    
  -50.2854195      -1.59545600      -20.0000000       9650.30273       1.57506895    
  -48.7658615      -1.56390297      -20.0000000       9650.30273       1.57506895    
  -50.2854195      -1.59545600      -20.0000000       9591.32715       1.57468724    
  -51.8859215      -1.67511594      -20.0000000       9591.32715       1.57468724    
  -51.7686501     -0.191007897      -20.0000000       9591.32715       1.57468724    
  -50.2816200      -7.23225027E-02  -20.0000000       9591.32715       1.57468724    
  -55.6295395       2.91055298      -20.0000000       7032.81787       1.57492077    
  -54.5736809       4.04919481      -20.0000000       7032.81787       1.57492077    
  -54.3531990       2.57653904      -20.0000000       7032.81787       1.57492077    
  -54.3531990       2.57653904      -20.0000000       7032.81787       1.57492077    
  -51.6464691       2.90894699      -20.0000000       8866.68359       1.57470441    
  -51.7500000       1.29565406      -20.0000000       8866.68359       1.57470441    
  -53.2043991       1.01675200      -20.0000000       8866.68359       1.57470441    
  -53.0367393       2.70281792      -20.0000000       8866.68359       1.57470441    
  -44.2742119      -6.25000000      -20.0000000       7693.80615       1.57776272    
  -45.7804108      -6.25000000      -20.0000000       7693.80615       1.57776272    
  -45.7679100      -4.68779421      -20.0000000       7693.80615       1.57776272    
  -44.2670212      -4.68766403      -20.0000000       7693.80615       1.57776272    
  -45.7679100      -4.68779421      -20.0000000       9308.67578       1.57596910    
  -47.2626686      -4.68801212      -20.0000000       9308.67578       1.57596910    
  -47.2550507      -3.12222195      -20.0000000       9308.67578       1.57596910    
  -45.7611885      -3.12411094      -20.0000000       9308.67578       1.57596910    
  -51.7500000       1.29565406      -20.0000000       9635.98145       1.57466865    
  -50.2459984       1.47492099      -20.0000000       9635.98145       1.57466865    
  -50.2816200      -7.23225027E-02  -20.0000000       9635.98145       1.57466865    
  -51.7686501     -0.191007897      -20.0000000       9635.98145       1.57466865    
  -47.2550507      -3.12222195      -20.0000000       9963.43359       1.57520092    
  -48.7254105      -3.12169194      -20.0000000       9963.43359       1.57520092    
  -48.7658615      -1.56390297      -20.0000000       9963.43359       1.57520092    
  -47.2643318      -1.55986798      -20.0000000       9963.43359       1.57520092    
  -48.7658615      -1.56390297      -20.0000000       10025.5146       1.57481825    
  -50.2854195      -1.59545600      -20.0000000       10025.5146       1.57481825    
  -50.2816200      -7.23225027E-02  -20.0000000       10025.5146       1.57481825    
  -48.7753716      -1.42937005E-02  -20.0000000       10025.5146       1.57481825    
  -54.5736809       4.04919481      -20.0000000       7574.97266       1.57505882    
  -53.0954399       4.36336088      -20.0000000       7574.97266       1.57505882    
  -53.0367393       2.70281792      -20.0000000       7574.97266       1.57505882    
  -54.3531990       2.57653904      -20.0000000       7574.97266       1.57505882    
  -54.6465797       5.53822613      -20.0000000       5398.70215       1.57632279    
  -54.5736809       4.04919481      -20.0000000       5398.70215       1.57632279    
  -55.8850899       4.68635893      -20.0000000       5398.70215       1.57632279    
  -55.8850899       4.68635893      -20.0000000       5398.70215       1.57632279    
  -44.2670212      -4.68766403      -20.0000000       7830.64600       1.57779360    
  -42.7620697      -4.68767691      -20.0000000       7830.64600       1.57779360    
  -42.7680206      -6.25000000      -20.0000000       7830.64600       1.57779360    
  -44.2742119      -6.25000000      -20.0000000       7830.64600       1.57779360    
  -44.2670212      -4.68766403      -20.0000000       9497.75488       1.57607162    
  -45.7679100      -4.68779421      -20.0000000       9497.75488       1.57607162    
  -45.7611885      -3.12411094      -20.0000000       9497.75488       1.57607162    
  -44.2611694      -3.12488103      -20.0000000       9497.75488       1.57607162    
  -45.7611885      -3.12411094      -20.0000000       10213.6719       1.57532322    
  -47.2550507      -3.12222195      -20.0000000       10213.6719       1.57532322    
  -47.2643318      -1.55986798      -20.0000000       10213.6719       1.57532322    
  -45.7603798      -1.56126106      -20.0000000       10213.6719       1.57532322    
  -50.2459984       1.47492099      -20.0000000       9311.74512       1.57488096    
  -51.7500000       1.29565406      -20.0000000       9311.74512       1.57488096    
  -51.6464691       2.90894699      -20.0000000       9311.74512       1.57488096    
  -50.2011604       3.04989505      -20.0000000       9311.74512       1.57488096    
  -54.6465797       5.53822613      -20.0000000       6088.42236       1.57637703    
  -53.2416306       6.06926107      -20.0000000       6088.42236       1.57637703    
  -53.0954399       4.36336088      -20.0000000       6088.42236       1.57637703    
  -54.5736809       4.04919481      -20.0000000       6088.42236       1.57637703    
  -47.2643318      -1.55986798      -20.0000000       10357.7617       1.57494688    
  -48.7658615      -1.56390297      -20.0000000       10357.7617       1.57494688    
  -48.7753716      -1.42937005E-02  -20.0000000       10357.7617       1.57494688    
  -47.2657204       0.00000000      -20.0000000       10357.7617       1.57494688    
  -48.7753716      -1.42937005E-02  -20.0000000       10037.9648       1.57481050    
  -50.2816200      -7.23225027E-02  -20.0000000       10037.9648       1.57481050    
  -50.2459984       1.47492099      -20.0000000       10037.9648       1.57481050    
  -48.7560692       1.53868604      -20.0000000       10037.9648       1.57481050    
  -51.6464691       2.90894699      -20.0000000       8111.67725       1.57525170    
  -53.0367393       2.70281792      -20.0000000       8111.67725       1.57525170    
  -53.0954399       4.36336088      -20.0000000       8111.67725       1.57525170    
  -51.6648903       4.56408405      -20.0000000       8111.67725       1.57525170    
  -41.2618294      -6.25000000      -20.0000000       7947.83252       1.57780409    
  -42.7680206      -6.25000000      -20.0000000       7947.83252       1.57780409    
  -42.7620697      -4.68767691      -20.0000000       7947.83252       1.57780409    
  -41.2566490      -4.68782711      -20.0000000       7947.83252       1.57780409    
  -44.2611694      -3.12488103      -20.0000000       9656.66895       1.57615697    
  -42.7563400      -3.12513494      -20.0000000       9656.66895       1.57615697    
  -42.7620697      -4.68767691      -20.0000000       9656.66895       1.57615697    
  -44.2670212      -4.68766403      -20.0000000       9656.66895       1.57615697    
  -44.2611694      -3.12488103      -20.0000000       10419.2256       1.57543385    
  -45.7611885      -3.12411094      -20.0000000       10419.2256       1.57543385    
  -45.7603798      -1.56126106      -20.0000000       10419.2256       1.57543385    
  -44.2565308      -1.56226599      -20.0000000       10419.2256       1.57543385    
  -45.7603798      -1.56126106      -20.0000000       10621.0400       1.57506800    
  -47.2643318      -1.55986798      -20.0000000       10621.0400       1.57506800    
  -47.2657204       0.00000000      -20.0000000       10621.0400       1.57506800    
  -45.7582893       0.00000000      -20.0000000       10621.0400       1.57506800    
  -47.2657204       0.00000000      -20.0000000       10360.5215       1.57494318    
  -48.7753716      -1.42937005E-02  -20.0000000       10360.5215       1.57494318    
  -48.7560692       1.53868604      -20.0000000       10360.5215       1.57494318    
  -47.2535896       1.55706894      -20.0000000       10360.5215       1.57494318    
  -48.7560692       1.53868604      -20.0000000       9669.65527       1.57504785    
  -50.2459984       1.47492099      -20.0000000       9669.65527       1.57504785    
  -50.2011604       3.04989505      -20.0000000       9669.65527       1.57504785    
  -48.7281189       3.10503101      -20.0000000       9669.65527       1.57504785    
  -50.2011604       3.04989505      -20.0000000       8499.21777       1.57547367    
  -51.6464691       2.90894699      -20.0000000       8499.21777       1.57547367    
  -51.6648903       4.56408405      -20.0000000       8499.21777       1.57547367    
  -50.2067184       4.64797401      -20.0000000       8499.21777       1.57547367    
  -51.6648903       4.56408405      -20.0000000       6474.82568       1.57681108    
  -53.0954399       4.36336088      -20.0000000       6474.82568       1.57681108    
  -53.2416306       6.06926107      -20.0000000       6474.82568       1.57681108    
  -51.7500000       6.25000000      -20.0000000       6474.82568       1.57681108    
  -39.7556496      -6.25000000      -20.0000000       8050.97510       1.57781029    
  -41.2618294      -6.25000000      -20.0000000       8050.97510       1.57781029    
  -41.2566490      -4.68782711      -20.0000000       8050.97510       1.57781029    
  -39.7507591      -4.68851089      -20.0000000       8050.97510       1.57781029    
  -41.2566490      -4.68782711      -20.0000000       9792.25684       1.57623100    
  -42.7620697      -4.68767691      -20.0000000       9792.25684       1.57623100    
  -42.7563400      -3.12513494      -20.0000000       9792.25684       1.57623100    
  -41.2511406      -3.12541890      -20.0000000       9792.25684       1.57623100    
  -44.2565308      -1.56226599      -20.0000000       10590.6504       1.57553279    
  -42.7509499      -1.56253600      -20.0000000       10590.6504       1.57553279    
  -42.7563400      -3.12513494      -20.0000000       10590.6504       1.57553279    
  -44.2611694      -3.12488103      -20.0000000       10590.6504       1.57553279    
  -44.2565308      -1.56226599      -20.0000000       10835.4570       1.57517993    
  -45.7603798      -1.56126106      -20.0000000       10835.4570       1.57517993    
  -45.7582893       0.00000000      -20.0000000       10835.4570       1.57517993    
  -44.2515602       0.00000000      -20.0000000       10835.4570       1.57517993    
  -45.7582893       0.00000000      -20.0000000       10621.7061       1.57506537    
  -47.2657204       0.00000000      -20.0000000       10621.7061       1.57506537    
  -47.2535896       1.55706894      -20.0000000       10621.7061       1.57506537    
  -45.7509003       1.56100297      -20.0000000       10621.7061       1.57506537    
  -47.2535896       1.55706894      -20.0000000       9967.63477       1.57519054    
  -48.7560692       1.53868604      -20.0000000       9967.63477       1.57519054    
  -48.7281189       3.10503101      -20.0000000       9967.63477       1.57519054    
  -47.2370110       3.11982203      -20.0000000       9967.63477       1.57519054    
  -48.7281189       3.10503101      -20.0000000       8816.83398       1.57567024    
  -50.2011604       3.04989505      -20.0000000       8816.83398       1.57567024    
  -50.2067184       4.64797401      -20.0000000       8816.83398       1.57567024    
  -48.7241211       4.67746210      -20.0000000       8816.83398       1.57567024    
  -50.2067184       4.64797401      -20.0000000       6817.68848       1.57713926    
  -51.6648903       4.56408405      -20.0000000       6817.68848       1.57713926    
  -51.7500000       6.25000000      -20.0000000       6817.68848       1.57713926    
  -50.2455711       6.25000000      -20.0000000       6817.68848       1.57713926    
  -38.2494698      -6.25000000      -20.0000000       8143.08838       1.57782900    
  -39.7556496      -6.25000000      -20.0000000       8143.08838       1.57782900    
  -39.7507591      -4.68851089      -20.0000000       8143.08838       1.57782900    
  -38.2446404      -4.68936491      -20.0000000       8143.08838       1.57782900    
  -39.7507591      -4.68851089      -20.0000000       9909.80762       1.57630193    
  -41.2566490      -4.68782711      -20.0000000       9909.80762       1.57630193    
  -41.2511406      -3.12541890      -20.0000000       9909.80762       1.57630193    
  -39.7453995      -3.12673903      -20.0000000       9909.80762       1.57630193    
  -41.2511406      -3.12541890      -20.0000000       10737.0352       1.57562590    
  -42.7563400      -3.12513494      -20.0000000       10737.0352       1.57562590    
  -42.7509499      -1.56253600      -20.0000000       10737.0352       1.57562590    
  -41.2455711      -1.56282198      -20.0000000       10737.0352       1.57562590    
  -44.2515602       0.00000000      -20.0000000       11013.9277       1.57528389    
  -42.7457504       0.00000000      -20.0000000       11013.9277       1.57528389    
  -42.7509499      -1.56253600      -20.0000000       11013.9277       1.57528389    
  -44.2565308      -1.56226599      -20.0000000       11013.9277       1.57528389    
  -44.2515602       0.00000000      -20.0000000       10836.0762       1.57517731    
  -45.7582893       0.00000000      -20.0000000       10836.0762       1.57517731    
  -45.7509003       1.56100297      -20.0000000       10836.0762       1.57517731    
  -44.2452011       1.56199801      -20.0000000       10836.0762       1.57517731    
  -45.7509003       1.56100297      -20.0000000       10214.7969       1.57531488    
  -47.2535896       1.55706894      -20.0000000       10214.7969       1.57531488    
  -47.2370110       3.11982203      -20.0000000       10214.7969       1.57531488    
  -45.7402802       3.12332392      -20.0000000       10214.7969       1.57531488    
  -47.2370110       3.11982203      -20.0000000       9086.28906       1.57582736    
  -48.7281189       3.10503101      -20.0000000       9086.28906       1.57582736    
  -48.7241211       4.67746210      -20.0000000       9086.28906       1.57582736    
  -47.2300911       4.68496799      -20.0000000       9086.28906       1.57582736    
  -48.7241211       4.67746210      -20.0000000       7110.12354       1.57737565    
  -50.2067184       4.64797401      -20.0000000       7110.12354       1.57737565    
  -50.2455711       6.25000000      -20.0000000       7110.12354       1.57737565    
  -48.7411499       6.25000000      -20.0000000       7110.12354       1.57737565    
  -36.7432899      -6.25000000      -20.0000000       8226.77441       1.57787359    
  -38.2494698      -6.25000000      -20.0000000       8226.77441       1.57787359    
  -38.2446404      -4.68936491      -20.0000000       8226.77441       1.57787359    
  -36.7384796      -4.68897390      -20.0000000       8226.77441       1.57787359    
  -38.2446404      -4.68936491      -20.0000000       10013.8428       1.57637942    
  -39.7507591      -4.68851089      -20.0000000       10013.8428       1.57637942    
  -39.7453995      -3.12673903      -20.0000000       10013.8428       1.57637942    
  -38.2396507      -3.12933803      -20.0000000       10013.8428       1.57637942    
  -39.7453995      -3.12673903      -20.0000000       10863.3770       1.57571566    
  -41.2511406      -3.12541890      -20.0000000       10863.3770       1.57571566    
  -41.2455711      -1.56282198      -20.0000000       10863.3770       1.57571566    
  -39.7399902      -1.56351995      -20.0000000       10863.3770       1.57571566    
  -41.2455711      -1.56282198      -20.0000000       11165.6807       1.57538342    
  -42.7509499      -1.56253600      -20.0000000       11165.6807       1.57538342    
  -42.7457504       0.00000000      -20.0000000       11165.6807       1.57538342    
  -41.2401695       0.00000000      -20.0000000       11165.6807       1.57538342    
  -44.2452011       1.56199801      -20.0000000       11014.0830       1.57528138    
  -42.7402611       1.56238496      -20.0000000       11014.0830       1.57528138    
  -42.7457504       0.00000000      -20.0000000       11014.0830       1.57528138    
  -44.2515602       0.00000000      -20.0000000       11014.0830       1.57528138    
  -44.2452011       1.56199801      -20.0000000       10419.6826       1.57542431    
  -45.7509003       1.56100297      -20.0000000       10419.6826       1.57542431    
  -45.7402802       3.12332392      -20.0000000       10419.6826       1.57542431    
  -44.2380295       3.12447906      -20.0000000       10419.6826       1.57542431    
  -45.7402802       3.12332392      -20.0000000       9312.19043       1.57595348    
  -47.2370110       3.11982203      -20.0000000       9312.19043       1.57595348    
  -47.2300911       4.68496799      -20.0000000       9312.19043       1.57595348    
  -45.7329903       4.68700409      -20.0000000       9312.19043       1.57595348    
  -47.2300911       4.68496799      -20.0000000       7343.85254       1.57754910    
  -48.7241211       4.67746210      -20.0000000       7343.85254       1.57754910    
  -48.7411499       6.25000000      -20.0000000       7343.85254       1.57754910    
  -47.2367287       6.25000000      -20.0000000       7343.85254       1.57754910    
  -35.2371101      -6.25000000      -20.0000000       8304.75684       1.57795906    
  -36.7432899      -6.25000000      -20.0000000       8304.75684       1.57795906    
  -36.7384796      -4.68897390      -20.0000000       8304.75684       1.57795906    
  -35.2325211      -4.68835878      -20.0000000       8304.75684       1.57795906    
  -36.7384796      -4.68897390      -20.0000000       10107.7383       1.57646787    
  -38.2446404      -4.68936491      -20.0000000       10107.7383       1.57646787    
  -38.2396507      -3.12933803      -20.0000000       10107.7383       1.57646787    
  -36.7339096      -3.12783909      -20.0000000       10107.7383       1.57646787    
  -38.2396507      -3.12933803      -20.0000000       10974.9902       1.57580996    
  -39.7453995      -3.12673903      -20.0000000       10974.9902       1.57580996    
  -39.7399902      -1.56351995      -20.0000000       10974.9902       1.57580996    
  -38.2346497      -1.56438303      -20.0000000       10974.9902       1.57580996    
  -39.7399902      -1.56351995      -20.0000000       11295.6084       1.57547939    
  -41.2455711      -1.56282198      -20.0000000       11295.6084       1.57547939    
  -41.2401695       0.00000000      -20.0000000       11295.6084       1.57547939    